 written on 15Sep2020 at 00:00:37 
          14
         125
    8    4    4    4    8    4    2    2    2    4    4    2    2    2    4
    4    2    2    2    4    8    4    4    4    8    4    2    2    2    4
    2    1    1    1    2    2    1    1    1    2    2    1    1    1    2
    4    2    2    2    4    4    2    2    2    4    2    1    1    1    2
    2    1    1    1    2    2    1    1    1    2    4    2    2    2    4
    4    2    2    2    4    2    1    1    1    2    2    1    1    1    2
    2    1    1    1    2    4    2    2    2    4    8    4    4    4    8
    4    2    2    2    4    4    2    2    2    4    4    2    2    2    4
    8    4    4    4    8
   -2   -2   -2    1    1   -0.000311   -0.000000
   -2   -2   -2    2    1   -0.000000    0.000000
   -2   -2   -2    3    1   -0.000000    0.000000
   -2   -2   -2    4    1    0.000000    0.000000
   -2   -2   -2    5    1    0.000000    0.000000
   -2   -2   -2    6    1   -0.000671   -0.000000
   -2   -2   -2    7    1    0.000000   -0.000000
   -2   -2   -2    8    1    0.000000   -0.000000
   -2   -2   -2    9    1    0.000000   -0.000000
   -2   -2   -2   10    1    0.000335   -0.000000
   -2   -2   -2   11    1    0.000000   -0.000000
   -2   -2   -2   12    1    0.000000   -0.000000
   -2   -2   -2   13    1    0.000000    0.000000
   -2   -2   -2   14    1    0.000335   -0.000000
   -2   -2   -2    1    2   -0.000000   -0.000000
   -2   -2   -2    2    2   -0.000136   -0.000000
   -2   -2   -2    3    2    0.000000    0.000000
   -2   -2   -2    4    2    0.000000   -0.000000
   -2   -2   -2    5    2    0.000000   -0.000000
   -2   -2   -2    6    2    0.000000   -0.000000
   -2   -2   -2    7    2   -0.000012    0.000000
   -2   -2   -2    8    2   -0.000000   -0.000000
   -2   -2   -2    9    2   -0.000012    0.000000
   -2   -2   -2   10    2   -0.000000   -0.000000
   -2   -2   -2   11    2   -0.000000    0.000000
   -2   -2   -2   12    2   -0.000000    0.000000
   -2   -2   -2   13    2    0.000000   -0.000000
   -2   -2   -2   14    2    0.000000   -0.000000
   -2   -2   -2    1    3   -0.000000   -0.000000
   -2   -2   -2    2    3    0.000000   -0.000000
   -2   -2   -2    3    3   -0.000136   -0.000000
   -2   -2   -2    4    3   -0.000000   -0.000000
   -2   -2   -2    5    3    0.000000   -0.000000
   -2   -2   -2    6    3   -0.000000    0.000000
   -2   -2   -2    7    3   -0.000000    0.000000
   -2   -2   -2    8    3   -0.000012    0.000000
   -2   -2   -2    9    3   -0.000000   -0.000000
   -2   -2   -2   10    3   -0.000000    0.000000
   -2   -2   -2   11    3   -0.000000   -0.000000
   -2   -2   -2   12    3   -0.000012   -0.000000
   -2   -2   -2   13    3    0.000000   -0.000000
   -2   -2   -2   14    3   -0.000000   -0.000000
   -2   -2   -2    1    4    0.000000   -0.000000
   -2   -2   -2    2    4    0.000000    0.000000
   -2   -2   -2    3    4   -0.000000    0.000000
   -2   -2   -2    4    4   -0.000311   -0.000000
   -2   -2   -2    5    4   -0.000000    0.000000
   -2   -2   -2    6    4    0.000000   -0.000000
   -2   -2   -2    7    4   -0.000000   -0.000000
   -2   -2   -2    8    4   -0.000000   -0.000000
   -2   -2   -2    9    4   -0.000000   -0.000000
   -2   -2   -2   10    4   -0.000581    0.000000
   -2   -2   -2   11    4    0.000000    0.000000
   -2   -2   -2   12    4    0.000000   -0.000000
   -2   -2   -2   13    4    0.000000   -0.000000
   -2   -2   -2   14    4    0.000581   -0.000000
   -2   -2   -2    1    5    0.000000   -0.000000
   -2   -2   -2    2    5    0.000000    0.000000
   -2   -2   -2    3    5    0.000000    0.000000
   -2   -2   -2    4    5   -0.000000   -0.000000
   -2   -2   -2    5    5   -0.000136   -0.000000
   -2   -2   -2    6    5    0.000000    0.000000
   -2   -2   -2    7    5    0.000000   -0.000000
   -2   -2   -2    8    5    0.000000   -0.000000
   -2   -2   -2    9    5   -0.000000    0.000000
   -2   -2   -2   10    5    0.000000    0.000000
   -2   -2   -2   11    5   -0.000012    0.000000
   -2   -2   -2   12    5    0.000000   -0.000000
   -2   -2   -2   13    5   -0.000012   -0.000000
   -2   -2   -2   14    5   -0.000000   -0.000000
   -2   -2   -2    1    6   -0.000671    0.000000
   -2   -2   -2    2    6    0.000000    0.000000
   -2   -2   -2    3    6   -0.000000   -0.000000
   -2   -2   -2    4    6    0.000000    0.000000
   -2   -2   -2    5    6    0.000000   -0.000000
   -2   -2   -2    6    6    0.000691   -0.000000
   -2   -2   -2    7    6   -0.000000    0.000000
   -2   -2   -2    8    6    0.000000    0.000000
   -2   -2   -2    9    6    0.000192   -0.000000
   -2   -2   -2   10    6   -0.000031   -0.000000
   -2   -2   -2   11    6    0.000000    0.000000
   -2   -2   -2   12    6    0.000192    0.000000
   -2   -2   -2   13    6    0.000000   -0.000000
   -2   -2   -2   14    6   -0.000031    0.000000
   -2   -2   -2    1    7    0.000000    0.000000
   -2   -2   -2    2    7   -0.000012   -0.000000
   -2   -2   -2    3    7   -0.000000   -0.000000
   -2   -2   -2    4    7   -0.000000    0.000000
   -2   -2   -2    5    7    0.000000    0.000000
   -2   -2   -2    6    7   -0.000000   -0.000000
   -2   -2   -2    7    7    0.000038   -0.000000
   -2   -2   -2    8    7   -0.000000    0.000000
   -2   -2   -2    9    7   -0.000171    0.000000
   -2   -2   -2   10    7    0.000192    0.000000
   -2   -2   -2   11    7    0.000000    0.000000
   -2   -2   -2   12    7   -0.000000    0.000000
   -2   -2   -2   13    7    0.000120   -0.000000
   -2   -2   -2   14    7   -0.000000    0.000000
   -2   -2   -2    1    8    0.000000    0.000000
   -2   -2   -2    2    8   -0.000000    0.000000
   -2   -2   -2    3    8   -0.000012   -0.000000
   -2   -2   -2    4    8   -0.000000    0.000000
   -2   -2   -2    5    8    0.000000    0.000000
   -2   -2   -2    6    8    0.000000   -0.000000
   -2   -2   -2    7    8   -0.000000   -0.000000
   -2   -2   -2    8    8    0.000038   -0.000000
   -2   -2   -2    9    8   -0.000000   -0.000000
   -2   -2   -2   10    8   -0.000000    0.000000
   -2   -2   -2   11    8    0.000120    0.000000
   -2   -2   -2   12    8   -0.000171   -0.000000
   -2   -2   -2   13    8   -0.000000    0.000000
   -2   -2   -2   14    8    0.000192    0.000000
   -2   -2   -2    1    9    0.000000    0.000000
   -2   -2   -2    2    9   -0.000012   -0.000000
   -2   -2   -2    3    9   -0.000000    0.000000
   -2   -2   -2    4    9   -0.000000    0.000000
   -2   -2   -2    5    9   -0.000000   -0.000000
   -2   -2   -2    6    9    0.000192    0.000000
   -2   -2   -2    7    9   -0.000171   -0.000000
   -2   -2   -2    8    9   -0.000000    0.000000
   -2   -2   -2    9    9    0.000038   -0.000000
   -2   -2   -2   10    9    0.000000    0.000000
   -2   -2   -2   11    9   -0.000000   -0.000000
   -2   -2   -2   12    9    0.000120   -0.000000
   -2   -2   -2   13    9    0.000000   -0.000000
   -2   -2   -2   14    9    0.000000   -0.000000
   -2   -2   -2    1   10    0.000335    0.000000
   -2   -2   -2    2   10   -0.000000    0.000000
   -2   -2   -2    3   10   -0.000000   -0.000000
   -2   -2   -2    4   10   -0.000581   -0.000000
   -2   -2   -2    5   10    0.000000   -0.000000
   -2   -2   -2    6   10   -0.000031    0.000000
   -2   -2   -2    7   10    0.000192   -0.000000
   -2   -2   -2    8   10   -0.000000   -0.000000
   -2   -2   -2    9   10    0.000000   -0.000000
   -2   -2   -2   10   10    0.000691   -0.000000
   -2   -2   -2   11   10   -0.000000   -0.000000
   -2   -2   -2   12   10   -0.000000   -0.000000
   -2   -2   -2   13   10    0.000192    0.000000
   -2   -2   -2   14   10   -0.000032   -0.000000
   -2   -2   -2    1   11    0.000000    0.000000
   -2   -2   -2    2   11   -0.000000   -0.000000
   -2   -2   -2    3   11   -0.000000    0.000000
   -2   -2   -2    4   11    0.000000   -0.000000
   -2   -2   -2    5   11   -0.000012   -0.000000
   -2   -2   -2    6   11    0.000000   -0.000000
   -2   -2   -2    7   11    0.000000   -0.000000
   -2   -2   -2    8   11    0.000120   -0.000000
   -2   -2   -2    9   11   -0.000000    0.000000
   -2   -2   -2   10   11   -0.000000    0.000000
   -2   -2   -2   11   11    0.000038   -0.000000
   -2   -2   -2   12   11   -0.000000    0.000000
   -2   -2   -2   13   11   -0.000171    0.000000
   -2   -2   -2   14   11    0.000192    0.000000
   -2   -2   -2    1   12    0.000000    0.000000
   -2   -2   -2    2   12   -0.000000   -0.000000
   -2   -2   -2    3   12   -0.000012    0.000000
   -2   -2   -2    4   12    0.000000    0.000000
   -2   -2   -2    5   12    0.000000    0.000000
   -2   -2   -2    6   12    0.000192   -0.000000
   -2   -2   -2    7   12   -0.000000   -0.000000
   -2   -2   -2    8   12   -0.000171    0.000000
   -2   -2   -2    9   12    0.000120    0.000000
   -2   -2   -2   10   12   -0.000000    0.000000
   -2   -2   -2   11   12   -0.000000   -0.000000
   -2   -2   -2   12   12    0.000038   -0.000000
   -2   -2   -2   13   12   -0.000000   -0.000000
   -2   -2   -2   14   12    0.000000    0.000000
   -2   -2   -2    1   13    0.000000   -0.000000
   -2   -2   -2    2   13    0.000000    0.000000
   -2   -2   -2    3   13    0.000000    0.000000
   -2   -2   -2    4   13    0.000000    0.000000
   -2   -2   -2    5   13   -0.000012    0.000000
   -2   -2   -2    6   13    0.000000    0.000000
   -2   -2   -2    7   13    0.000120    0.000000
   -2   -2   -2    8   13   -0.000000   -0.000000
   -2   -2   -2    9   13    0.000000    0.000000
   -2   -2   -2   10   13    0.000192   -0.000000
   -2   -2   -2   11   13   -0.000171   -0.000000
   -2   -2   -2   12   13   -0.000000    0.000000
   -2   -2   -2   13   13    0.000038   -0.000000
   -2   -2   -2   14   13    0.000000    0.000000
   -2   -2   -2    1   14    0.000335    0.000000
   -2   -2   -2    2   14    0.000000    0.000000
   -2   -2   -2    3   14   -0.000000    0.000000
   -2   -2   -2    4   14    0.000581    0.000000
   -2   -2   -2    5   14   -0.000000    0.000000
   -2   -2   -2    6   14   -0.000031   -0.000000
   -2   -2   -2    7   14   -0.000000   -0.000000
   -2   -2   -2    8   14    0.000192   -0.000000
   -2   -2   -2    9   14    0.000000    0.000000
   -2   -2   -2   10   14   -0.000032    0.000000
   -2   -2   -2   11   14    0.000192   -0.000000
   -2   -2   -2   12   14    0.000000   -0.000000
   -2   -2   -2   13   14    0.000000   -0.000000
   -2   -2   -2   14   14    0.000691   -0.000000
   -2   -2   -1    1    1    0.000271    0.000000
   -2   -2   -1    2    1    0.000000    0.000000
   -2   -2   -1    3    1   -0.000000   -0.000000
   -2   -2   -1    4    1    0.000000    0.000000
   -2   -2   -1    5    1   -0.000000    0.000000
   -2   -2   -1    6    1    0.000838    0.000000
   -2   -2   -1    7    1   -0.000000    0.000000
   -2   -2   -1    8    1    0.000000    0.000000
   -2   -2   -1    9    1   -0.000378    0.000000
   -2   -2   -1   10    1    0.000380    0.000000
   -2   -2   -1   11    1   -0.000000    0.000000
   -2   -2   -1   12    1   -0.000378    0.000000
   -2   -2   -1   13    1   -0.000000    0.000000
   -2   -2   -1   14    1    0.000380    0.000000
   -2   -2   -1    1    2    0.000000    0.000000
   -2   -2   -1    2    2    0.000086    0.000000
   -2   -2   -1    3    2    0.000000   -0.000000
   -2   -2   -1    4    2   -0.000000   -0.000000
   -2   -2   -1    5    2   -0.000000   -0.000000
   -2   -2   -1    6    2   -0.000000    0.000000
   -2   -2   -1    7    2   -0.000193   -0.000000
   -2   -2   -1    8    2    0.000000   -0.000000
   -2   -2   -1    9    2   -0.000064   -0.000000
   -2   -2   -1   10    2    0.000142    0.000000
   -2   -2   -1   11    2    0.000000    0.000000
   -2   -2   -1   12    2    0.000000    0.000000
   -2   -2   -1   13    2    0.000038   -0.000000
   -2   -2   -1   14    2   -0.000000   -0.000000
   -2   -2   -1    1    3   -0.000000    0.000000
   -2   -2   -1    2    3    0.000000   -0.000000
   -2   -2   -1    3    3    0.000086   -0.000000
   -2   -2   -1    4    3    0.000000    0.000000
   -2   -2   -1    5    3    0.000000    0.000000
   -2   -2   -1    6    3   -0.000000   -0.000000
   -2   -2   -1    7    3    0.000000    0.000000
   -2   -2   -1    8    3   -0.000193   -0.000000
   -2   -2   -1    9    3    0.000000   -0.000000
   -2   -2   -1   10    3   -0.000000   -0.000000
   -2   -2   -1   11    3    0.000038   -0.000000
   -2   -2   -1   12    3   -0.000064    0.000000
   -2   -2   -1   13    3   -0.000000    0.000000
   -2   -2   -1   14    3    0.000142    0.000000
   -2   -2   -1    1    4    0.000000    0.000000
   -2   -2   -1    2    4   -0.000000   -0.000000
   -2   -2   -1    3    4    0.000000   -0.000000
   -2   -2   -1    4    4    0.000353   -0.000000
   -2   -2   -1    5    4   -0.000000    0.000000
   -2   -2   -1    6    4    0.000000    0.000000
   -2   -2   -1    7    4    0.000000    0.000000
   -2   -2   -1    8    4   -0.000000    0.000000
   -2   -2   -1    9    4    0.000283   -0.000000
   -2   -2   -1   10    4    0.000291   -0.000000
   -2   -2   -1   11    4    0.000000    0.000000
   -2   -2   -1   12    4   -0.000283    0.000000
   -2   -2   -1   13    4    0.000000   -0.000000
   -2   -2   -1   14    4   -0.000291    0.000000
   -2   -2   -1    1    5   -0.000000    0.000000
   -2   -2   -1    2    5   -0.000000   -0.000000
   -2   -2   -1    3    5   -0.000000   -0.000000
   -2   -2   -1    4    5   -0.000000    0.000000
   -2   -2   -1    5    5   -0.000540    0.000000
   -2   -2   -1    6    5   -0.000000   -0.000000
   -2   -2   -1    7    5    0.000000   -0.000000
   -2   -2   -1    8    5    0.000000   -0.000000
   -2   -2   -1    9    5    0.000000   -0.000000
   -2   -2   -1   10    5   -0.000000   -0.000000
   -2   -2   -1   11    5   -0.000327   -0.000000
   -2   -2   -1   12    5    0.000000    0.000000
   -2   -2   -1   13    5   -0.000327    0.000000
   -2   -2   -1   14    5   -0.000000   -0.000000
   -2   -2   -1    1    6    0.000671    0.000000
   -2   -2   -1    2    6   -0.000000    0.000000
   -2   -2   -1    3    6    0.000000    0.000000
   -2   -2   -1    4    6   -0.000000    0.000000
   -2   -2   -1    5    6   -0.000000   -0.000000
   -2   -2   -1    6    6   -0.000832   -0.000000
   -2   -2   -1    7    6    0.000000    0.000000
   -2   -2   -1    8    6    0.000000   -0.000000
   -2   -2   -1    9    6    0.000192   -0.000000
   -2   -2   -1   10    6    0.000031   -0.000000
   -2   -2   -1   11    6    0.000000   -0.000000
   -2   -2   -1   12    6    0.000192   -0.000000
   -2   -2   -1   13    6    0.000000    0.000000
   -2   -2   -1   14    6    0.000031   -0.000000
   -2   -2   -1    1    7   -0.000000   -0.000000
   -2   -2   -1    2    7    0.000012   -0.000000
   -2   -2   -1    3    7   -0.000000   -0.000000
   -2   -2   -1    4    7    0.000000    0.000000
   -2   -2   -1    5    7    0.000000    0.000000
   -2   -2   -1    6    7    0.000000    0.000000
   -2   -2   -1    7    7    0.000233    0.000000
   -2   -2   -1    8    7    0.000000    0.000000
   -2   -2   -1    9    7    0.000171   -0.000000
   -2   -2   -1   10    7    0.000192   -0.000000
   -2   -2   -1   11    7   -0.000000   -0.000000
   -2   -2   -1   12    7    0.000000   -0.000000
   -2   -2   -1   13    7    0.000120    0.000000
   -2   -2   -1   14    7    0.000000   -0.000000
   -2   -2   -1    1    8   -0.000000   -0.000000
   -2   -2   -1    2    8    0.000000   -0.000000
   -2   -2   -1    3    8    0.000012   -0.000000
   -2   -2   -1    4    8   -0.000000   -0.000000
   -2   -2   -1    5    8    0.000000    0.000000
   -2   -2   -1    6    8    0.000000    0.000000
   -2   -2   -1    7    8    0.000000    0.000000
   -2   -2   -1    8    8    0.000233   -0.000000
   -2   -2   -1    9    8   -0.000000    0.000000
   -2   -2   -1   10    8   -0.000000    0.000000
   -2   -2   -1   11    8    0.000120    0.000000
   -2   -2   -1   12    8    0.000171    0.000000
   -2   -2   -1   13    8    0.000000    0.000000
   -2   -2   -1   14    8    0.000192   -0.000000
   -2   -2   -1    1    9    0.000378   -0.000000
   -2   -2   -1    2    9   -0.000064    0.000000
   -2   -2   -1    3    9   -0.000000    0.000000
   -2   -2   -1    4    9   -0.000283    0.000000
   -2   -2   -1    5    9    0.000000   -0.000000
   -2   -2   -1    6    9   -0.000158   -0.000000
   -2   -2   -1    7    9   -0.000441   -0.000000
   -2   -2   -1    8    9    0.000000    0.000000
   -2   -2   -1    9    9    0.000113   -0.000000
   -2   -2   -1   10    9   -0.000000   -0.000000
   -2   -2   -1   11    9    0.000000   -0.000000
   -2   -2   -1   12    9    0.000187   -0.000000
   -2   -2   -1   13    9   -0.000052    0.000000
   -2   -2   -1   14    9   -0.000031    0.000000
   -2   -2   -1    1   10    0.000380    0.000000
   -2   -2   -1    2   10   -0.000142    0.000000
   -2   -2   -1    3   10   -0.000000   -0.000000
   -2   -2   -1    4   10    0.000291   -0.000000
   -2   -2   -1    5   10    0.000000    0.000000
   -2   -2   -1    6   10   -0.000490   -0.000000
   -2   -2   -1    7   10   -0.000284    0.000000
   -2   -2   -1    8   10    0.000000    0.000000
   -2   -2   -1    9   10   -0.000000   -0.000000
   -2   -2   -1   10   10   -0.000674    0.000000
   -2   -2   -1   11   10   -0.000000    0.000000
   -2   -2   -1   12   10    0.000031   -0.000000
   -2   -2   -1   13   10    0.000192   -0.000000
   -2   -2   -1   14   10    0.000616   -0.000000
   -2   -2   -1    1   11    0.000000    0.000000
   -2   -2   -1    2   11   -0.000000    0.000000
   -2   -2   -1    3   11   -0.000038   -0.000000
   -2   -2   -1    4   11    0.000000    0.000000
   -2   -2   -1    5   11   -0.000327   -0.000000
   -2   -2   -1    6   11   -0.000000    0.000000
   -2   -2   -1    7   11    0.000000   -0.000000
   -2   -2   -1    8   11    0.000323    0.000000
   -2   -2   -1    9   11    0.000000   -0.000000
   -2   -2   -1   10   11   -0.000000   -0.000000
   -2   -2   -1   11   11   -0.000103   -0.000000
   -2   -2   -1   12   11    0.000052   -0.000000
   -2   -2   -1   13   11   -0.000156   -0.000000
   -2   -2   -1   14   11    0.000192    0.000000
   -2   -2   -1    1   12    0.000378   -0.000000
   -2   -2   -1    2   12   -0.000000   -0.000000
   -2   -2   -1    3   12   -0.000064    0.000000
   -2   -2   -1    4   12    0.000283   -0.000000
   -2   -2   -1    5   12   -0.000000    0.000000
   -2   -2   -1    6   12   -0.000158    0.000000
   -2   -2   -1    7   12   -0.000000   -0.000000
   -2   -2   -1    8   12   -0.000441    0.000000
   -2   -2   -1    9   12    0.000187   -0.000000
   -2   -2   -1   10   12   -0.000031    0.000000
   -2   -2   -1   11   12   -0.000052    0.000000
   -2   -2   -1   12   12    0.000113    0.000000
   -2   -2   -1   13   12    0.000000    0.000000
   -2   -2   -1   14   12   -0.000000   -0.000000
   -2   -2   -1    1   13    0.000000   -0.000000
   -2   -2   -1    2   13   -0.000038   -0.000000
   -2   -2   -1    3   13    0.000000    0.000000
   -2   -2   -1    4   13    0.000000   -0.000000
   -2   -2   -1    5   13   -0.000327    0.000000
   -2   -2   -1    6   13   -0.000000    0.000000
   -2   -2   -1    7   13    0.000323    0.000000
   -2   -2   -1    8   13    0.000000   -0.000000
   -2   -2   -1    9   13    0.000052    0.000000
   -2   -2   -1   10   13    0.000192    0.000000
   -2   -2   -1   11   13   -0.000156   -0.000000
   -2   -2   -1   12   13    0.000000   -0.000000
   -2   -2   -1   13   13   -0.000103   -0.000000
   -2   -2   -1   14   13    0.000000   -0.000000
   -2   -2   -1    1   14    0.000380    0.000000
   -2   -2   -1    2   14    0.000000   -0.000000
   -2   -2   -1    3   14   -0.000142   -0.000000
   -2   -2   -1    4   14   -0.000291    0.000000
   -2   -2   -1    5   14   -0.000000    0.000000
   -2   -2   -1    6   14   -0.000490    0.000000
   -2   -2   -1    7   14   -0.000000    0.000000
   -2   -2   -1    8   14   -0.000284    0.000000
   -2   -2   -1    9   14    0.000031   -0.000000
   -2   -2   -1   10   14    0.000616    0.000000
   -2   -2   -1   11   14    0.000192    0.000000
   -2   -2   -1   12   14   -0.000000    0.000000
   -2   -2   -1   13   14    0.000000    0.000000
   -2   -2   -1   14   14   -0.000674    0.000000
   -2   -2    0    1    1   -0.000151   -0.000000
   -2   -2    0    2    1   -0.000000    0.000000
   -2   -2    0    3    1    0.000000    0.000000
   -2   -2    0    4    1    0.000000   -0.000000
   -2   -2    0    5    1   -0.000000    0.000000
   -2   -2    0    6    1   -0.000838    0.000000
   -2   -2    0    7    1    0.000000   -0.000000
   -2   -2    0    8    1   -0.000000   -0.000000
   -2   -2    0    9    1    0.000000   -0.000000
   -2   -2    0   10    1   -0.001274    0.000000
   -2   -2    0   11    1    0.000000   -0.000000
   -2   -2    0   12    1    0.000000   -0.000000
   -2   -2    0   13    1    0.000000   -0.000000
   -2   -2    0   14    1   -0.001274   -0.000000
   -2   -2    0    1    2   -0.000000   -0.000000
   -2   -2    0    2    2    0.000067   -0.000000
   -2   -2    0    3    2    0.000000   -0.000000
   -2   -2    0    4    2    0.000000    0.000000
   -2   -2    0    5    2   -0.000000   -0.000000
   -2   -2    0    6    2    0.000000    0.000000
   -2   -2    0    7    2    0.000193   -0.000000
   -2   -2    0    8    2   -0.000000    0.000000
   -2   -2    0    9    2    0.000081   -0.000000
   -2   -2    0   10    2   -0.000000    0.000000
   -2   -2    0   11    2    0.000000   -0.000000
   -2   -2    0   12    2   -0.000000    0.000000
   -2   -2    0   13    2   -0.000000    0.000000
   -2   -2    0   14    2   -0.000000   -0.000000
   -2   -2    0    1    3    0.000000   -0.000000
   -2   -2    0    2    3    0.000000    0.000000
   -2   -2    0    3    3    0.000067   -0.000000
   -2   -2    0    4    3   -0.000000   -0.000000
   -2   -2    0    5    3   -0.000000   -0.000000
   -2   -2    0    6    3    0.000000   -0.000000
   -2   -2    0    7    3   -0.000000    0.000000
   -2   -2    0    8    3    0.000193   -0.000000
   -2   -2    0    9    3    0.000000   -0.000000
   -2   -2    0   10    3    0.000000   -0.000000
   -2   -2    0   11    3    0.000000    0.000000
   -2   -2    0   12    3    0.000081    0.000000
   -2   -2    0   13    3   -0.000000    0.000000
   -2   -2    0   14    3   -0.000000    0.000000
   -2   -2    0    1    4    0.000000    0.000000
   -2   -2    0    2    4    0.000000   -0.000000
   -2   -2    0    3    4   -0.000000    0.000000
   -2   -2    0    4    4    0.000853   -0.000000
   -2   -2    0    5    4    0.000000    0.000000
   -2   -2    0    6    4   -0.000000    0.000000
   -2   -2    0    7    4   -0.000000    0.000000
   -2   -2    0    8    4    0.000000   -0.000000
   -2   -2    0    9    4   -0.000000    0.000000
   -2   -2    0   10    4   -0.001626   -0.000000
   -2   -2    0   11    4   -0.000000   -0.000000
   -2   -2    0   12    4    0.000000   -0.000000
   -2   -2    0   13    4    0.000000    0.000000
   -2   -2    0   14    4    0.001626    0.000000
   -2   -2    0    1    5   -0.000000   -0.000000
   -2   -2    0    2    5   -0.000000    0.000000
   -2   -2    0    3    5   -0.000000    0.000000
   -2   -2    0    4    5    0.000000   -0.000000
   -2   -2    0    5    5   -0.001729   -0.000000
   -2   -2    0    6    5    0.000000    0.000000
   -2   -2    0    7    5    0.000000   -0.000000
   -2   -2    0    8    5    0.000000   -0.000000
   -2   -2    0    9    5    0.000000    0.000000
   -2   -2    0   10    5    0.000000   -0.000000
   -2   -2    0   11    5   -0.000723    0.000000
   -2   -2    0   12    5    0.000000   -0.000000
   -2   -2    0   13    5   -0.000723   -0.000000
   -2   -2    0   14    5    0.000000   -0.000000
   -2   -2    0    1    6   -0.000838   -0.000000
   -2   -2    0    2    6    0.000000   -0.000000
   -2   -2    0    3    6    0.000000    0.000000
   -2   -2    0    4    6   -0.000000   -0.000000
   -2   -2    0    5    6    0.000000   -0.000000
   -2   -2    0    6    6    0.001107   -0.000000
   -2   -2    0    7    6   -0.000000    0.000000
   -2   -2    0    8    6   -0.000000    0.000000
   -2   -2    0    9    6   -0.000158   -0.000000
   -2   -2    0   10    6    0.000490    0.000000
   -2   -2    0   11    6   -0.000000    0.000000
   -2   -2    0   12    6   -0.000158    0.000000
   -2   -2    0   13    6   -0.000000    0.000000
   -2   -2    0   14    6    0.000490   -0.000000
   -2   -2    0    1    7    0.000000    0.000000
   -2   -2    0    2    7    0.000193    0.000000
   -2   -2    0    3    7   -0.000000   -0.000000
   -2   -2    0    4    7   -0.000000   -0.000000
   -2   -2    0    5    7    0.000000    0.000000
   -2   -2    0    6    7   -0.000000   -0.000000
   -2   -2    0    7    7    0.004838   -0.000000
   -2   -2    0    8    7    0.000000    0.000000
   -2   -2    0    9    7    0.000441   -0.000000
   -2   -2    0   10    7   -0.000284   -0.000000
   -2   -2    0   11    7   -0.000000   -0.000000
   -2   -2    0   12    7    0.000000    0.000000
   -2   -2    0   13    7    0.000323   -0.000000
   -2   -2    0   14    7    0.000000   -0.000000
   -2   -2    0    1    8   -0.000000    0.000000
   -2   -2    0    2    8   -0.000000   -0.000000
   -2   -2    0    3    8    0.000193    0.000000
   -2   -2    0    4    8    0.000000    0.000000
   -2   -2    0    5    8    0.000000    0.000000
   -2   -2    0    6    8   -0.000000   -0.000000
   -2   -2    0    7    8    0.000000   -0.000000
   -2   -2    0    8    8    0.004838   -0.000000
   -2   -2    0    9    8    0.000000    0.000000
   -2   -2    0   10    8   -0.000000   -0.000000
   -2   -2    0   11    8    0.000323    0.000000
   -2   -2    0   12    8    0.000441    0.000000
   -2   -2    0   13    8    0.000000    0.000000
   -2   -2    0   14    8   -0.000284    0.000000
   -2   -2    0    1    9    0.000000    0.000000
   -2   -2    0    2    9    0.000081    0.000000
   -2   -2    0    3    9    0.000000    0.000000
   -2   -2    0    4    9   -0.000000   -0.000000
   -2   -2    0    5    9    0.000000   -0.000000
   -2   -2    0    6    9   -0.000158    0.000000
   -2   -2    0    7    9    0.000441    0.000000
   -2   -2    0    8    9    0.000000   -0.000000
   -2   -2    0    9    9   -0.000412   -0.000000
   -2   -2    0   10    9    0.000000    0.000000
   -2   -2    0   11    9   -0.000000    0.000000
   -2   -2    0   12    9   -0.000568   -0.000000
   -2   -2    0   13    9   -0.000000    0.000000
   -2   -2    0   14    9   -0.000000   -0.000000
   -2   -2    0    1   10   -0.001274   -0.000000
   -2   -2    0    2   10   -0.000000   -0.000000
   -2   -2    0    3   10    0.000000    0.000000
   -2   -2    0    4   10   -0.001626    0.000000
   -2   -2    0    5   10    0.000000    0.000000
   -2   -2    0    6   10    0.000490   -0.000000
   -2   -2    0    7   10   -0.000284    0.000000
   -2   -2    0    8   10   -0.000000    0.000000
   -2   -2    0    9   10    0.000000   -0.000000
   -2   -2    0   10   10    0.000677   -0.000000
   -2   -2    0   11   10    0.000000    0.000000
   -2   -2    0   12   10   -0.000000    0.000000
   -2   -2    0   13   10    0.001933    0.000000
   -2   -2    0   14   10   -0.004210   -0.000000
   -2   -2    0    1   11    0.000000    0.000000
   -2   -2    0    2   11    0.000000    0.000000
   -2   -2    0    3   11    0.000000   -0.000000
   -2   -2    0    4   11   -0.000000    0.000000
   -2   -2    0    5   11   -0.000723   -0.000000
   -2   -2    0    6   11   -0.000000   -0.000000
   -2   -2    0    7   11   -0.000000    0.000000
   -2   -2    0    8   11    0.000323   -0.000000
   -2   -2    0    9   11   -0.000000   -0.000000
   -2   -2    0   10   11    0.000000   -0.000000
   -2   -2    0   11   11    0.000887   -0.000000
   -2   -2    0   12   11    0.000000   -0.000000
   -2   -2    0   13   11   -0.001663   -0.000000
   -2   -2    0   14   11    0.001933    0.000000
   -2   -2    0    1   12    0.000000    0.000000
   -2   -2    0    2   12   -0.000000   -0.000000
   -2   -2    0    3   12    0.000081   -0.000000
   -2   -2    0    4   12    0.000000    0.000000
   -2   -2    0    5   12    0.000000    0.000000
   -2   -2    0    6   12   -0.000158   -0.000000
   -2   -2    0    7   12    0.000000   -0.000000
   -2   -2    0    8   12    0.000441   -0.000000
   -2   -2    0    9   12   -0.000568    0.000000
   -2   -2    0   10   12   -0.000000   -0.000000
   -2   -2    0   11   12    0.000000    0.000000
   -2   -2    0   12   12   -0.000412   -0.000000
   -2   -2    0   13   12   -0.000000   -0.000000
   -2   -2    0   14   12   -0.000000    0.000000
   -2   -2    0    1   13    0.000000    0.000000
   -2   -2    0    2   13   -0.000000   -0.000000
   -2   -2    0    3   13   -0.000000   -0.000000
   -2   -2    0    4   13    0.000000   -0.000000
   -2   -2    0    5   13   -0.000723    0.000000
   -2   -2    0    6   13   -0.000000   -0.000000
   -2   -2    0    7   13    0.000323    0.000000
   -2   -2    0    8   13    0.000000   -0.000000
   -2   -2    0    9   13   -0.000000   -0.000000
   -2   -2    0   10   13    0.001933   -0.000000
   -2   -2    0   11   13   -0.001663    0.000000
   -2   -2    0   12   13   -0.000000    0.000000
   -2   -2    0   13   13    0.000887   -0.000000
   -2   -2    0   14   13   -0.000000    0.000000
   -2   -2    0    1   14   -0.001274    0.000000
   -2   -2    0    2   14   -0.000000    0.000000
   -2   -2    0    3   14   -0.000000   -0.000000
   -2   -2    0    4   14    0.001626   -0.000000
   -2   -2    0    5   14    0.000000    0.000000
   -2   -2    0    6   14    0.000490    0.000000
   -2   -2    0    7   14    0.000000    0.000000
   -2   -2    0    8   14   -0.000284   -0.000000
   -2   -2    0    9   14   -0.000000    0.000000
   -2   -2    0   10   14   -0.004210    0.000000
   -2   -2    0   11   14    0.001933   -0.000000
   -2   -2    0   12   14   -0.000000   -0.000000
   -2   -2    0   13   14   -0.000000   -0.000000
   -2   -2    0   14   14    0.000677   -0.000000
   -2   -2    1    1    1    0.000271   -0.000000
   -2   -2    1    2    1    0.000000   -0.000000
   -2   -2    1    3    1   -0.000000   -0.000000
   -2   -2    1    4    1    0.000000   -0.000000
   -2   -2    1    5    1   -0.000000   -0.000000
   -2   -2    1    6    1    0.000671   -0.000000
   -2   -2    1    7    1   -0.000000    0.000000
   -2   -2    1    8    1   -0.000000    0.000000
   -2   -2    1    9    1    0.000378    0.000000
   -2   -2    1   10    1    0.000380   -0.000000
   -2   -2    1   11    1    0.000000   -0.000000
   -2   -2    1   12    1    0.000378    0.000000
   -2   -2    1   13    1    0.000000    0.000000
   -2   -2    1   14    1    0.000380   -0.000000
   -2   -2    1    1    2    0.000000   -0.000000
   -2   -2    1    2    2    0.000086   -0.000000
   -2   -2    1    3    2    0.000000    0.000000
   -2   -2    1    4    2   -0.000000    0.000000
   -2   -2    1    5    2   -0.000000    0.000000
   -2   -2    1    6    2   -0.000000   -0.000000
   -2   -2    1    7    2    0.000012    0.000000
   -2   -2    1    8    2    0.000000    0.000000
   -2   -2    1    9    2   -0.000064   -0.000000
   -2   -2    1   10    2   -0.000142   -0.000000
   -2   -2    1   11    2   -0.000000   -0.000000
   -2   -2    1   12    2   -0.000000    0.000000
   -2   -2    1   13    2   -0.000038    0.000000
   -2   -2    1   14    2    0.000000    0.000000
   -2   -2    1    1    3   -0.000000    0.000000
   -2   -2    1    2    3    0.000000    0.000000
   -2   -2    1    3    3    0.000086    0.000000
   -2   -2    1    4    3    0.000000    0.000000
   -2   -2    1    5    3   -0.000000    0.000000
   -2   -2    1    6    3    0.000000   -0.000000
   -2   -2    1    7    3   -0.000000    0.000000
   -2   -2    1    8    3    0.000012    0.000000
   -2   -2    1    9    3   -0.000000   -0.000000
   -2   -2    1   10    3   -0.000000    0.000000
   -2   -2    1   11    3   -0.000038    0.000000
   -2   -2    1   12    3   -0.000064   -0.000000
   -2   -2    1   13    3    0.000000   -0.000000
   -2   -2    1   14    3   -0.000142    0.000000
   -2   -2    1    1    4    0.000000   -0.000000
   -2   -2    1    2    4   -0.000000    0.000000
   -2   -2    1    3    4    0.000000   -0.000000
   -2   -2    1    4    4    0.000353    0.000000
   -2   -2    1    5    4   -0.000000   -0.000000
   -2   -2    1    6    4   -0.000000   -0.000000
   -2   -2    1    7    4    0.000000   -0.000000
   -2   -2    1    8    4   -0.000000    0.000000
   -2   -2    1    9    4   -0.000283   -0.000000
   -2   -2    1   10    4    0.000291    0.000000
   -2   -2    1   11    4    0.000000   -0.000000
   -2   -2    1   12    4    0.000283    0.000000
   -2   -2    1   13    4    0.000000    0.000000
   -2   -2    1   14    4   -0.000291   -0.000000
   -2   -2    1    1    5   -0.000000   -0.000000
   -2   -2    1    2    5   -0.000000    0.000000
   -2   -2    1    3    5    0.000000   -0.000000
   -2   -2    1    4    5   -0.000000   -0.000000
   -2   -2    1    5    5   -0.000540   -0.000000
   -2   -2    1    6    5   -0.000000    0.000000
   -2   -2    1    7    5    0.000000   -0.000000
   -2   -2    1    8    5    0.000000   -0.000000
   -2   -2    1    9    5    0.000000    0.000000
   -2   -2    1   10    5    0.000000   -0.000000
   -2   -2    1   11    5   -0.000327    0.000000
   -2   -2    1   12    5   -0.000000   -0.000000
   -2   -2    1   13    5   -0.000327   -0.000000
   -2   -2    1   14    5   -0.000000   -0.000000
   -2   -2    1    1    6    0.000838   -0.000000
   -2   -2    1    2    6   -0.000000   -0.000000
   -2   -2    1    3    6   -0.000000    0.000000
   -2   -2    1    4    6    0.000000   -0.000000
   -2   -2    1    5    6   -0.000000    0.000000
   -2   -2    1    6    6   -0.000832    0.000000
   -2   -2    1    7    6    0.000000   -0.000000
   -2   -2    1    8    6    0.000000   -0.000000
   -2   -2    1    9    6   -0.000158    0.000000
   -2   -2    1   10    6   -0.000490    0.000000
   -2   -2    1   11    6   -0.000000   -0.000000
   -2   -2    1   12    6   -0.000158   -0.000000
   -2   -2    1   13    6   -0.000000   -0.000000
   -2   -2    1   14    6   -0.000490   -0.000000
   -2   -2    1    1    7   -0.000000   -0.000000
   -2   -2    1    2    7   -0.000193    0.000000
   -2   -2    1    3    7    0.000000   -0.000000
   -2   -2    1    4    7    0.000000   -0.000000
   -2   -2    1    5    7    0.000000    0.000000
   -2   -2    1    6    7    0.000000   -0.000000
   -2   -2    1    7    7    0.000233   -0.000000
   -2   -2    1    8    7    0.000000   -0.000000
   -2   -2    1    9    7   -0.000441    0.000000
   -2   -2    1   10    7   -0.000284   -0.000000
   -2   -2    1   11    7    0.000000    0.000000
   -2   -2    1   12    7   -0.000000    0.000000
   -2   -2    1   13    7    0.000323   -0.000000
   -2   -2    1   14    7   -0.000000   -0.000000
   -2   -2    1    1    8    0.000000   -0.000000
   -2   -2    1    2    8    0.000000    0.000000
   -2   -2    1    3    8   -0.000193    0.000000
   -2   -2    1    4    8   -0.000000   -0.000000
   -2   -2    1    5    8    0.000000    0.000000
   -2   -2    1    6    8    0.000000    0.000000
   -2   -2    1    7    8    0.000000   -0.000000
   -2   -2    1    8    8    0.000233    0.000000
   -2   -2    1    9    8    0.000000   -0.000000
   -2   -2    1   10    8    0.000000   -0.000000
   -2   -2    1   11    8    0.000323   -0.000000
   -2   -2    1   12    8   -0.000441   -0.000000
   -2   -2    1   13    8    0.000000    0.000000
   -2   -2    1   14    8   -0.000284   -0.000000
   -2   -2    1    1    9   -0.000378   -0.000000
   -2   -2    1    2    9   -0.000064    0.000000
   -2   -2    1    3    9    0.000000    0.000000
   -2   -2    1    4    9    0.000283    0.000000
   -2   -2    1    5    9    0.000000    0.000000
   -2   -2    1    6    9    0.000192    0.000000
   -2   -2    1    7    9    0.000171    0.000000
   -2   -2    1    8    9   -0.000000   -0.000000
   -2   -2    1    9    9    0.000113    0.000000
   -2   -2    1   10    9   -0.000000    0.000000
   -2   -2    1   11    9    0.000000    0.000000
   -2   -2    1   12    9    0.000187    0.000000
   -2   -2    1   13    9    0.000052   -0.000000
   -2   -2    1   14    9    0.000031    0.000000
   -2   -2    1    1   10    0.000380   -0.000000
   -2   -2    1    2   10    0.000142   -0.000000
   -2   -2    1    3   10   -0.000000    0.000000
   -2   -2    1    4   10    0.000291    0.000000
   -2   -2    1    5   10   -0.000000    0.000000
   -2   -2    1    6   10    0.000031    0.000000
   -2   -2    1    7   10    0.000192    0.000000
   -2   -2    1    8   10   -0.000000   -0.000000
   -2   -2    1    9   10   -0.000000    0.000000
   -2   -2    1   10   10   -0.000674   -0.000000
   -2   -2    1   11   10   -0.000000    0.000000
   -2   -2    1   12   10   -0.000031   -0.000000
   -2   -2    1   13   10    0.000192   -0.000000
   -2   -2    1   14   10    0.000616   -0.000000
   -2   -2    1    1   11   -0.000000   -0.000000
   -2   -2    1    2   11    0.000000   -0.000000
   -2   -2    1    3   11    0.000038    0.000000
   -2   -2    1    4   11    0.000000   -0.000000
   -2   -2    1    5   11   -0.000327    0.000000
   -2   -2    1    6   11    0.000000    0.000000
   -2   -2    1    7   11   -0.000000    0.000000
   -2   -2    1    8   11    0.000120   -0.000000
   -2   -2    1    9   11    0.000000    0.000000
   -2   -2    1   10   11   -0.000000   -0.000000
   -2   -2    1   11   11   -0.000103    0.000000
   -2   -2    1   12   11   -0.000052   -0.000000
   -2   -2    1   13   11   -0.000156    0.000000
   -2   -2    1   14   11    0.000192   -0.000000
   -2   -2    1    1   12   -0.000378   -0.000000
   -2   -2    1    2   12    0.000000   -0.000000
   -2   -2    1    3   12   -0.000064   -0.000000
   -2   -2    1    4   12   -0.000283   -0.000000
   -2   -2    1    5   12    0.000000   -0.000000
   -2   -2    1    6   12    0.000192    0.000000
   -2   -2    1    7   12    0.000000    0.000000
   -2   -2    1    8   12    0.000171   -0.000000
   -2   -2    1    9   12    0.000187    0.000000
   -2   -2    1   10   12    0.000031    0.000000
   -2   -2    1   11   12    0.000052    0.000000
   -2   -2    1   12   12    0.000113   -0.000000
   -2   -2    1   13   12    0.000000    0.000000
   -2   -2    1   14   12   -0.000000   -0.000000
   -2   -2    1    1   13   -0.000000   -0.000000
   -2   -2    1    2   13    0.000038    0.000000
   -2   -2    1    3   13   -0.000000   -0.000000
   -2   -2    1    4   13    0.000000    0.000000
   -2   -2    1    5   13   -0.000327   -0.000000
   -2   -2    1    6   13    0.000000   -0.000000
   -2   -2    1    7   13    0.000120   -0.000000
   -2   -2    1    8   13    0.000000   -0.000000
   -2   -2    1    9   13   -0.000052   -0.000000
   -2   -2    1   10   13    0.000192    0.000000
   -2   -2    1   11   13   -0.000156    0.000000
   -2   -2    1   12   13    0.000000   -0.000000
   -2   -2    1   13   13   -0.000103    0.000000
   -2   -2    1   14   13    0.000000   -0.000000
   -2   -2    1    1   14    0.000380   -0.000000
   -2   -2    1    2   14   -0.000000    0.000000
   -2   -2    1    3   14    0.000142   -0.000000
   -2   -2    1    4   14   -0.000291   -0.000000
   -2   -2    1    5   14   -0.000000    0.000000
   -2   -2    1    6   14    0.000031    0.000000
   -2   -2    1    7   14    0.000000    0.000000
   -2   -2    1    8   14    0.000192    0.000000
   -2   -2    1    9   14   -0.000031   -0.000000
   -2   -2    1   10   14    0.000616    0.000000
   -2   -2    1   11   14    0.000192   -0.000000
   -2   -2    1   12   14   -0.000000    0.000000
   -2   -2    1   13   14    0.000000    0.000000
   -2   -2    1   14   14   -0.000674   -0.000000
   -2   -2    2    1    1   -0.000311   -0.000000
   -2   -2    2    2    1   -0.000000    0.000000
   -2   -2    2    3    1   -0.000000    0.000000
   -2   -2    2    4    1    0.000000    0.000000
   -2   -2    2    5    1    0.000000    0.000000
   -2   -2    2    6    1   -0.000671   -0.000000
   -2   -2    2    7    1    0.000000   -0.000000
   -2   -2    2    8    1    0.000000   -0.000000
   -2   -2    2    9    1    0.000000   -0.000000
   -2   -2    2   10    1    0.000335   -0.000000
   -2   -2    2   11    1    0.000000   -0.000000
   -2   -2    2   12    1    0.000000   -0.000000
   -2   -2    2   13    1    0.000000    0.000000
   -2   -2    2   14    1    0.000335   -0.000000
   -2   -2    2    1    2   -0.000000   -0.000000
   -2   -2    2    2    2   -0.000136   -0.000000
   -2   -2    2    3    2    0.000000    0.000000
   -2   -2    2    4    2    0.000000   -0.000000
   -2   -2    2    5    2    0.000000   -0.000000
   -2   -2    2    6    2    0.000000   -0.000000
   -2   -2    2    7    2   -0.000012    0.000000
   -2   -2    2    8    2   -0.000000   -0.000000
   -2   -2    2    9    2   -0.000012    0.000000
   -2   -2    2   10    2   -0.000000   -0.000000
   -2   -2    2   11    2   -0.000000    0.000000
   -2   -2    2   12    2   -0.000000    0.000000
   -2   -2    2   13    2    0.000000   -0.000000
   -2   -2    2   14    2    0.000000   -0.000000
   -2   -2    2    1    3   -0.000000   -0.000000
   -2   -2    2    2    3    0.000000   -0.000000
   -2   -2    2    3    3   -0.000136   -0.000000
   -2   -2    2    4    3   -0.000000   -0.000000
   -2   -2    2    5    3    0.000000   -0.000000
   -2   -2    2    6    3   -0.000000    0.000000
   -2   -2    2    7    3   -0.000000    0.000000
   -2   -2    2    8    3   -0.000012    0.000000
   -2   -2    2    9    3   -0.000000   -0.000000
   -2   -2    2   10    3   -0.000000    0.000000
   -2   -2    2   11    3   -0.000000   -0.000000
   -2   -2    2   12    3   -0.000012   -0.000000
   -2   -2    2   13    3    0.000000   -0.000000
   -2   -2    2   14    3   -0.000000   -0.000000
   -2   -2    2    1    4    0.000000   -0.000000
   -2   -2    2    2    4    0.000000    0.000000
   -2   -2    2    3    4   -0.000000    0.000000
   -2   -2    2    4    4   -0.000311   -0.000000
   -2   -2    2    5    4   -0.000000    0.000000
   -2   -2    2    6    4    0.000000   -0.000000
   -2   -2    2    7    4   -0.000000   -0.000000
   -2   -2    2    8    4   -0.000000   -0.000000
   -2   -2    2    9    4   -0.000000   -0.000000
   -2   -2    2   10    4   -0.000581    0.000000
   -2   -2    2   11    4    0.000000    0.000000
   -2   -2    2   12    4    0.000000   -0.000000
   -2   -2    2   13    4    0.000000   -0.000000
   -2   -2    2   14    4    0.000581   -0.000000
   -2   -2    2    1    5    0.000000   -0.000000
   -2   -2    2    2    5    0.000000    0.000000
   -2   -2    2    3    5    0.000000    0.000000
   -2   -2    2    4    5   -0.000000   -0.000000
   -2   -2    2    5    5   -0.000136   -0.000000
   -2   -2    2    6    5    0.000000    0.000000
   -2   -2    2    7    5    0.000000   -0.000000
   -2   -2    2    8    5    0.000000   -0.000000
   -2   -2    2    9    5   -0.000000    0.000000
   -2   -2    2   10    5    0.000000    0.000000
   -2   -2    2   11    5   -0.000012    0.000000
   -2   -2    2   12    5    0.000000   -0.000000
   -2   -2    2   13    5   -0.000012   -0.000000
   -2   -2    2   14    5   -0.000000   -0.000000
   -2   -2    2    1    6   -0.000671    0.000000
   -2   -2    2    2    6    0.000000    0.000000
   -2   -2    2    3    6   -0.000000   -0.000000
   -2   -2    2    4    6    0.000000    0.000000
   -2   -2    2    5    6    0.000000   -0.000000
   -2   -2    2    6    6    0.000691   -0.000000
   -2   -2    2    7    6   -0.000000    0.000000
   -2   -2    2    8    6    0.000000    0.000000
   -2   -2    2    9    6    0.000192   -0.000000
   -2   -2    2   10    6   -0.000031   -0.000000
   -2   -2    2   11    6    0.000000    0.000000
   -2   -2    2   12    6    0.000192    0.000000
   -2   -2    2   13    6    0.000000   -0.000000
   -2   -2    2   14    6   -0.000031    0.000000
   -2   -2    2    1    7    0.000000    0.000000
   -2   -2    2    2    7   -0.000012   -0.000000
   -2   -2    2    3    7   -0.000000   -0.000000
   -2   -2    2    4    7   -0.000000    0.000000
   -2   -2    2    5    7    0.000000    0.000000
   -2   -2    2    6    7   -0.000000   -0.000000
   -2   -2    2    7    7    0.000038   -0.000000
   -2   -2    2    8    7   -0.000000    0.000000
   -2   -2    2    9    7   -0.000171    0.000000
   -2   -2    2   10    7    0.000192    0.000000
   -2   -2    2   11    7    0.000000    0.000000
   -2   -2    2   12    7   -0.000000    0.000000
   -2   -2    2   13    7    0.000120   -0.000000
   -2   -2    2   14    7   -0.000000    0.000000
   -2   -2    2    1    8    0.000000    0.000000
   -2   -2    2    2    8   -0.000000    0.000000
   -2   -2    2    3    8   -0.000012   -0.000000
   -2   -2    2    4    8   -0.000000    0.000000
   -2   -2    2    5    8    0.000000    0.000000
   -2   -2    2    6    8    0.000000   -0.000000
   -2   -2    2    7    8   -0.000000   -0.000000
   -2   -2    2    8    8    0.000038   -0.000000
   -2   -2    2    9    8   -0.000000   -0.000000
   -2   -2    2   10    8   -0.000000    0.000000
   -2   -2    2   11    8    0.000120    0.000000
   -2   -2    2   12    8   -0.000171   -0.000000
   -2   -2    2   13    8   -0.000000    0.000000
   -2   -2    2   14    8    0.000192    0.000000
   -2   -2    2    1    9    0.000000    0.000000
   -2   -2    2    2    9   -0.000012   -0.000000
   -2   -2    2    3    9   -0.000000    0.000000
   -2   -2    2    4    9   -0.000000    0.000000
   -2   -2    2    5    9   -0.000000   -0.000000
   -2   -2    2    6    9    0.000192    0.000000
   -2   -2    2    7    9   -0.000171   -0.000000
   -2   -2    2    8    9   -0.000000    0.000000
   -2   -2    2    9    9    0.000038   -0.000000
   -2   -2    2   10    9    0.000000    0.000000
   -2   -2    2   11    9   -0.000000   -0.000000
   -2   -2    2   12    9    0.000120   -0.000000
   -2   -2    2   13    9    0.000000   -0.000000
   -2   -2    2   14    9    0.000000   -0.000000
   -2   -2    2    1   10    0.000335    0.000000
   -2   -2    2    2   10   -0.000000    0.000000
   -2   -2    2    3   10   -0.000000   -0.000000
   -2   -2    2    4   10   -0.000581   -0.000000
   -2   -2    2    5   10    0.000000   -0.000000
   -2   -2    2    6   10   -0.000031    0.000000
   -2   -2    2    7   10    0.000192   -0.000000
   -2   -2    2    8   10   -0.000000   -0.000000
   -2   -2    2    9   10    0.000000   -0.000000
   -2   -2    2   10   10    0.000691   -0.000000
   -2   -2    2   11   10   -0.000000   -0.000000
   -2   -2    2   12   10   -0.000000   -0.000000
   -2   -2    2   13   10    0.000192    0.000000
   -2   -2    2   14   10   -0.000032   -0.000000
   -2   -2    2    1   11    0.000000    0.000000
   -2   -2    2    2   11   -0.000000   -0.000000
   -2   -2    2    3   11   -0.000000    0.000000
   -2   -2    2    4   11    0.000000   -0.000000
   -2   -2    2    5   11   -0.000012   -0.000000
   -2   -2    2    6   11    0.000000   -0.000000
   -2   -2    2    7   11    0.000000   -0.000000
   -2   -2    2    8   11    0.000120   -0.000000
   -2   -2    2    9   11   -0.000000    0.000000
   -2   -2    2   10   11   -0.000000    0.000000
   -2   -2    2   11   11    0.000038   -0.000000
   -2   -2    2   12   11   -0.000000    0.000000
   -2   -2    2   13   11   -0.000171    0.000000
   -2   -2    2   14   11    0.000192    0.000000
   -2   -2    2    1   12    0.000000    0.000000
   -2   -2    2    2   12   -0.000000   -0.000000
   -2   -2    2    3   12   -0.000012    0.000000
   -2   -2    2    4   12    0.000000    0.000000
   -2   -2    2    5   12    0.000000    0.000000
   -2   -2    2    6   12    0.000192   -0.000000
   -2   -2    2    7   12   -0.000000   -0.000000
   -2   -2    2    8   12   -0.000171    0.000000
   -2   -2    2    9   12    0.000120    0.000000
   -2   -2    2   10   12   -0.000000    0.000000
   -2   -2    2   11   12   -0.000000   -0.000000
   -2   -2    2   12   12    0.000038   -0.000000
   -2   -2    2   13   12   -0.000000   -0.000000
   -2   -2    2   14   12    0.000000    0.000000
   -2   -2    2    1   13    0.000000   -0.000000
   -2   -2    2    2   13    0.000000    0.000000
   -2   -2    2    3   13    0.000000    0.000000
   -2   -2    2    4   13    0.000000    0.000000
   -2   -2    2    5   13   -0.000012    0.000000
   -2   -2    2    6   13    0.000000    0.000000
   -2   -2    2    7   13    0.000120    0.000000
   -2   -2    2    8   13   -0.000000   -0.000000
   -2   -2    2    9   13    0.000000    0.000000
   -2   -2    2   10   13    0.000192   -0.000000
   -2   -2    2   11   13   -0.000171   -0.000000
   -2   -2    2   12   13   -0.000000    0.000000
   -2   -2    2   13   13    0.000038   -0.000000
   -2   -2    2   14   13    0.000000    0.000000
   -2   -2    2    1   14    0.000335    0.000000
   -2   -2    2    2   14    0.000000    0.000000
   -2   -2    2    3   14   -0.000000    0.000000
   -2   -2    2    4   14    0.000581    0.000000
   -2   -2    2    5   14   -0.000000    0.000000
   -2   -2    2    6   14   -0.000031   -0.000000
   -2   -2    2    7   14   -0.000000   -0.000000
   -2   -2    2    8   14    0.000192   -0.000000
   -2   -2    2    9   14    0.000000    0.000000
   -2   -2    2   10   14   -0.000032    0.000000
   -2   -2    2   11   14    0.000192   -0.000000
   -2   -2    2   12   14    0.000000   -0.000000
   -2   -2    2   13   14    0.000000   -0.000000
   -2   -2    2   14   14    0.000691   -0.000000
   -2   -1   -2    1    1    0.000334    0.000000
   -2   -1   -2    2    1   -0.000000   -0.000000
   -2   -1   -2    3    1    0.000000   -0.000000
   -2   -1   -2    4    1   -0.000035    0.000000
   -2   -1   -2    5    1   -0.000000   -0.000000
   -2   -1   -2    6    1    0.000063    0.000000
   -2   -1   -2    7    1    0.000000   -0.000000
   -2   -1   -2    8    1    0.000434    0.000000
   -2   -1   -2    9    1    0.000000    0.000000
   -2   -1   -2   10    1   -0.000441    0.000000
   -2   -1   -2   11    1   -0.000054    0.000000
   -2   -1   -2   12    1    0.000000    0.000000
   -2   -1   -2   13    1    0.000000   -0.000000
   -2   -1   -2   14    1   -0.000419    0.000000
   -2   -1   -2    1    2   -0.000000   -0.000000
   -2   -1   -2    2    2   -0.000541   -0.000000
   -2   -1   -2    3    2   -0.000000   -0.000000
   -2   -1   -2    4    2    0.000000    0.000000
   -2   -1   -2    5    2    0.000000   -0.000000
   -2   -1   -2    6    2    0.000000   -0.000000
   -2   -1   -2    7    2   -0.000327    0.000000
   -2   -1   -2    8    2    0.000000    0.000000
   -2   -1   -2    9    2   -0.000327   -0.000000
   -2   -1   -2   10    2   -0.000000   -0.000000
   -2   -1   -2   11    2   -0.000000   -0.000000
   -2   -1   -2   12    2    0.000000    0.000000
   -2   -1   -2   13    2    0.000000   -0.000000
   -2   -1   -2   14    2    0.000000    0.000000
   -2   -1   -2    1    3    0.000000    0.000000
   -2   -1   -2    2    3   -0.000000   -0.000000
   -2   -1   -2    3    3    0.000086   -0.000000
   -2   -1   -2    4    3   -0.000000   -0.000000
   -2   -1   -2    5    3    0.000000   -0.000000
   -2   -1   -2    6    3    0.000142   -0.000000
   -2   -1   -2    7    3    0.000000    0.000000
   -2   -1   -2    8    3   -0.000064   -0.000000
   -2   -1   -2    9    3    0.000038   -0.000000
   -2   -1   -2   10    3    0.000000    0.000000
   -2   -1   -2   11    3   -0.000000   -0.000000
   -2   -1   -2   12    3   -0.000193   -0.000000
   -2   -1   -2   13    3   -0.000000    0.000000
   -2   -1   -2   14    3   -0.000000   -0.000000
   -2   -1   -2    1    4   -0.000035    0.000000
   -2   -1   -2    2    4    0.000000   -0.000000
   -2   -1   -2    3    4    0.000000   -0.000000
   -2   -1   -2    4    4    0.000293   -0.000000
   -2   -1   -2    5    4   -0.000000   -0.000000
   -2   -1   -2    6    4   -0.000473   -0.000000
   -2   -1   -2    7    4   -0.000000   -0.000000
   -2   -1   -2    8    4    0.000188    0.000000
   -2   -1   -2    9    4   -0.000000    0.000000
   -2   -1   -2   10    4   -0.000183   -0.000000
   -2   -1   -2   11    4    0.000469    0.000000
   -2   -1   -2   12    4   -0.000000    0.000000
   -2   -1   -2   13    4   -0.000000    0.000000
   -2   -1   -2   14    4   -0.000728    0.000000
   -2   -1   -2    1    5    0.000000    0.000000
   -2   -1   -2    2    5   -0.000000   -0.000000
   -2   -1   -2    3    5    0.000000    0.000000
   -2   -1   -2    4    5    0.000000    0.000000
   -2   -1   -2    5    5    0.000086   -0.000000
   -2   -1   -2    6    5    0.000000    0.000000
   -2   -1   -2    7    5    0.000038    0.000000
   -2   -1   -2    8    5    0.000000   -0.000000
   -2   -1   -2    9    5   -0.000000    0.000000
   -2   -1   -2   10    5    0.000142    0.000000
   -2   -1   -2   11    5   -0.000064    0.000000
   -2   -1   -2   12    5    0.000000   -0.000000
   -2   -1   -2   13    5   -0.000193    0.000000
   -2   -1   -2   14    5   -0.000000    0.000000
   -2   -1   -2    1    6    0.000063    0.000000
   -2   -1   -2    2    6    0.000000   -0.000000
   -2   -1   -2    3    6   -0.000142    0.000000
   -2   -1   -2    4    6   -0.000473   -0.000000
   -2   -1   -2    5    6   -0.000000   -0.000000
   -2   -1   -2    6    6   -0.000675    0.000000
   -2   -1   -2    7    6   -0.000000   -0.000000
   -2   -1   -2    8    6    0.000000   -0.000000
   -2   -1   -2    9    6    0.000192   -0.000000
   -2   -1   -2   10    6    0.000615   -0.000000
   -2   -1   -2   11    6    0.000030    0.000000
   -2   -1   -2   12    6   -0.000283   -0.000000
   -2   -1   -2   13    6    0.000000   -0.000000
   -2   -1   -2   14    6   -0.000490    0.000000
   -2   -1   -2    1    7    0.000000    0.000000
   -2   -1   -2    2    7   -0.000327   -0.000000
   -2   -1   -2    3    7    0.000000   -0.000000
   -2   -1   -2    4    7   -0.000000   -0.000000
   -2   -1   -2    5    7   -0.000038    0.000000
   -2   -1   -2    6    7   -0.000000   -0.000000
   -2   -1   -2    7    7   -0.000103   -0.000000
   -2   -1   -2    8    7   -0.000000    0.000000
   -2   -1   -2    9    7   -0.000156   -0.000000
   -2   -1   -2   10    7    0.000191    0.000000
   -2   -1   -2   11    7    0.000052   -0.000000
   -2   -1   -2   12    7   -0.000000   -0.000000
   -2   -1   -2   13    7    0.000323   -0.000000
   -2   -1   -2   14    7   -0.000000   -0.000000
   -2   -1   -2    1    8   -0.000434   -0.000000
   -2   -1   -2    2    8    0.000000   -0.000000
   -2   -1   -2    3    8   -0.000064    0.000000
   -2   -1   -2    4    8   -0.000188   -0.000000
   -2   -1   -2    5    8   -0.000000    0.000000
   -2   -1   -2    6    8    0.000000    0.000000
   -2   -1   -2    7    8   -0.000000    0.000000
   -2   -1   -2    8    8    0.000113    0.000000
   -2   -1   -2    9    8   -0.000052   -0.000000
   -2   -1   -2   10    8   -0.000030   -0.000000
   -2   -1   -2   11    8    0.000187   -0.000000
   -2   -1   -2   12    8   -0.000441    0.000000
   -2   -1   -2   13    8    0.000000    0.000000
   -2   -1   -2   14    8   -0.000159   -0.000000
   -2   -1   -2    1    9    0.000000    0.000000
   -2   -1   -2    2    9   -0.000327    0.000000
   -2   -1   -2    3    9   -0.000038   -0.000000
   -2   -1   -2    4    9   -0.000000   -0.000000
   -2   -1   -2    5    9   -0.000000    0.000000
   -2   -1   -2    6    9    0.000192   -0.000000
   -2   -1   -2    7    9   -0.000156   -0.000000
   -2   -1   -2    8    9    0.000052   -0.000000
   -2   -1   -2    9    9   -0.000103    0.000000
   -2   -1   -2   10    9    0.000000    0.000000
   -2   -1   -2   11    9   -0.000000    0.000000
   -2   -1   -2   12    9    0.000323   -0.000000
   -2   -1   -2   13    9   -0.000000   -0.000000
   -2   -1   -2   14    9    0.000000    0.000000
   -2   -1   -2    1   10   -0.000441   -0.000000
   -2   -1   -2    2   10   -0.000000    0.000000
   -2   -1   -2    3   10   -0.000000   -0.000000
   -2   -1   -2    4   10   -0.000183   -0.000000
   -2   -1   -2    5   10   -0.000142    0.000000
   -2   -1   -2    6   10    0.000615    0.000000
   -2   -1   -2    7   10    0.000191   -0.000000
   -2   -1   -2    8   10    0.000030   -0.000000
   -2   -1   -2    9   10    0.000000    0.000000
   -2   -1   -2   10   10   -0.000674    0.000000
   -2   -1   -2   11   10    0.000000   -0.000000
   -2   -1   -2   12   10   -0.000000    0.000000
   -2   -1   -2   13   10   -0.000283   -0.000000
   -2   -1   -2   14   10   -0.000489   -0.000000
   -2   -1   -2    1   11    0.000054    0.000000
   -2   -1   -2    2   11    0.000000   -0.000000
   -2   -1   -2    3   11    0.000000    0.000000
   -2   -1   -2    4   11   -0.000469   -0.000000
   -2   -1   -2    5   11   -0.000064   -0.000000
   -2   -1   -2    6   11   -0.000030   -0.000000
   -2   -1   -2    7   11   -0.000052   -0.000000
   -2   -1   -2    8   11    0.000187   -0.000000
   -2   -1   -2    9   11   -0.000000    0.000000
   -2   -1   -2   10   11   -0.000000   -0.000000
   -2   -1   -2   11   11    0.000113    0.000000
   -2   -1   -2   12   11    0.000000    0.000000
   -2   -1   -2   13   11   -0.000441   -0.000000
   -2   -1   -2   14   11   -0.000158    0.000000
   -2   -1   -2    1   12   -0.000000   -0.000000
   -2   -1   -2    2   12    0.000000   -0.000000
   -2   -1   -2    3   12    0.000012    0.000000
   -2   -1   -2    4   12    0.000000   -0.000000
   -2   -1   -2    5   12    0.000000   -0.000000
   -2   -1   -2    6   12    0.000192    0.000000
   -2   -1   -2    7   12    0.000000   -0.000000
   -2   -1   -2    8   12    0.000171    0.000000
   -2   -1   -2    9   12    0.000120   -0.000000
   -2   -1   -2   10   12   -0.000000   -0.000000
   -2   -1   -2   11   12   -0.000000    0.000000
   -2   -1   -2   12   12    0.000233   -0.000000
   -2   -1   -2   13   12    0.000000    0.000000
   -2   -1   -2   14   12    0.000000   -0.000000
   -2   -1   -2    1   13   -0.000000   -0.000000
   -2   -1   -2    2   13   -0.000000    0.000000
   -2   -1   -2    3   13   -0.000000    0.000000
   -2   -1   -2    4   13    0.000000    0.000000
   -2   -1   -2    5   13    0.000012    0.000000
   -2   -1   -2    6   13    0.000000    0.000000
   -2   -1   -2    7   13    0.000120    0.000000
   -2   -1   -2    8   13    0.000000    0.000000
   -2   -1   -2    9   13    0.000000    0.000000
   -2   -1   -2   10   13    0.000192   -0.000000
   -2   -1   -2   11   13    0.000171   -0.000000
   -2   -1   -2   12   13    0.000000    0.000000
   -2   -1   -2   13   13    0.000233   -0.000000
   -2   -1   -2   14   13    0.000000    0.000000
   -2   -1   -2    1   14   -0.000335   -0.000000
   -2   -1   -2    2   14   -0.000000   -0.000000
   -2   -1   -2    3   14    0.000000   -0.000000
   -2   -1   -2    4   14   -0.000581    0.000000
   -2   -1   -2    5   14    0.000000    0.000000
   -2   -1   -2    6   14    0.000031    0.000000
   -2   -1   -2    7   14    0.000000   -0.000000
   -2   -1   -2    8   14    0.000192    0.000000
   -2   -1   -2    9   14   -0.000000    0.000000
   -2   -1   -2   10   14    0.000032   -0.000000
   -2   -1   -2   11   14    0.000192    0.000000
   -2   -1   -2   12   14   -0.000000    0.000000
   -2   -1   -2   13   14   -0.000000    0.000000
   -2   -1   -2   14   14   -0.000833    0.000000
   -2   -1   -1    1    1   -0.000257    0.000000
   -2   -1   -1    2    1    0.000000    0.000000
   -2   -1   -1    3    1   -0.000024    0.000000
   -2   -1   -1    4    1   -0.000158    0.000000
   -2   -1   -1    5    1    0.000000    0.000000
   -2   -1   -1    6    1   -0.000938    0.000000
   -2   -1   -1    7    1   -0.000000    0.000000
   -2   -1   -1    8    1   -0.000880   -0.000000
   -2   -1   -1    9    1   -0.000322   -0.000000
   -2   -1   -1   10    1    0.000123    0.000000
   -2   -1   -1   11    1    0.000466   -0.000000
   -2   -1   -1   12    1    0.000236   -0.000000
   -2   -1   -1   13    1   -0.000000   -0.000000
   -2   -1   -1   14    1   -0.000396    0.000000
   -2   -1   -1    1    2    0.000000    0.000000
   -2   -1   -1    2    2    0.000112    0.000000
   -2   -1   -1    3    2    0.000000    0.000000
   -2   -1   -1    4    2   -0.000000   -0.000000
   -2   -1   -1    5    2    0.000810   -0.000000
   -2   -1   -1    6    2   -0.000000    0.000000
   -2   -1   -1    7    2   -0.002258   -0.000000
   -2   -1   -1    8    2   -0.000000    0.000000
   -2   -1   -1    9    2   -0.000308   -0.000000
   -2   -1   -1   10    2    0.000020    0.000000
   -2   -1   -1   11    2    0.000372    0.000000
   -2   -1   -1   12    2   -0.000000    0.000000
   -2   -1   -1   13    2    0.000630   -0.000000
   -2   -1   -1   14    2    0.000000   -0.000000
   -2   -1   -1    1    3   -0.000024   -0.000000
   -2   -1   -1    2    3   -0.000000    0.000000
   -2   -1   -1    3    3   -0.000070    0.000000
   -2   -1   -1    4    3    0.000043   -0.000000
   -2   -1   -1    5    3   -0.000000    0.000000
   -2   -1   -1    6    3   -0.000147    0.000000
   -2   -1   -1    7    3    0.000000   -0.000000
   -2   -1   -1    8    3    0.000040    0.000000
   -2   -1   -1    9    3    0.000557   -0.000000
   -2   -1   -1   10    3    0.000519   -0.000000
   -2   -1   -1   11    3    0.000557   -0.000000
   -2   -1   -1   12    3    0.000040   -0.000000
   -2   -1   -1   13    3    0.000000   -0.000000
   -2   -1   -1   14    3   -0.000146   -0.000000
   -2   -1   -1    1    4   -0.000158    0.000000
   -2   -1   -1    2    4   -0.000000    0.000000
   -2   -1   -1    3    4    0.000043    0.000000
   -2   -1   -1    4    4   -0.000075   -0.000000
   -2   -1   -1    5    4   -0.000000    0.000000
   -2   -1   -1    6    4    0.001000   -0.000000
   -2   -1   -1    7    4    0.000000   -0.000000
   -2   -1   -1    8    4    0.000230   -0.000000
   -2   -1   -1    9    4   -0.000355   -0.000000
   -2   -1   -1   10    4   -0.000214   -0.000000
   -2   -1   -1   11    4    0.000102   -0.000000
   -2   -1   -1   12    4    0.000879   -0.000000
   -2   -1   -1   13    4    0.000000    0.000000
   -2   -1   -1   14    4    0.001311   -0.000000
   -2   -1   -1    1    5   -0.000000    0.000000
   -2   -1   -1    2    5    0.000810   -0.000000
   -2   -1   -1    3    5    0.000000   -0.000000
   -2   -1   -1    4    5   -0.000000   -0.000000
   -2   -1   -1    5    5    0.000112   -0.000000
   -2   -1   -1    6    5   -0.000000   -0.000000
   -2   -1   -1    7    5    0.000630    0.000000
   -2   -1   -1    8    5   -0.000000   -0.000000
   -2   -1   -1    9    5    0.000372    0.000000
   -2   -1   -1   10    5    0.000020    0.000000
   -2   -1   -1   11    5   -0.000308    0.000000
   -2   -1   -1   12    5   -0.000000    0.000000
   -2   -1   -1   13    5   -0.002258    0.000000
   -2   -1   -1   14    5   -0.000000   -0.000000
   -2   -1   -1    1    6   -0.000063   -0.000000
   -2   -1   -1    2    6   -0.000000    0.000000
   -2   -1   -1    3    6   -0.000142   -0.000000
   -2   -1   -1    4    6    0.000473    0.000000
   -2   -1   -1    5    6   -0.000000   -0.000000
   -2   -1   -1    6    6    0.001001    0.000000
   -2   -1   -1    7    6    0.000000   -0.000000
   -2   -1   -1    8    6    0.000644    0.000000
   -2   -1   -1    9    6    0.000192    0.000000
   -2   -1   -1   10    6   -0.000615    0.000000
   -2   -1   -1   11    6   -0.000030    0.000000
   -2   -1   -1   12    6   -0.000283    0.000000
   -2   -1   -1   13    6    0.000000    0.000000
   -2   -1   -1   14    6    0.000490   -0.000000
   -2   -1   -1    1    7   -0.000000    0.000000
   -2   -1   -1    2    7    0.000327   -0.000000
   -2   -1   -1    3    7   -0.000000   -0.000000
   -2   -1   -1    4    7    0.000000    0.000000
   -2   -1   -1    5    7   -0.000038   -0.000000
   -2   -1   -1    6    7    0.000000   -0.000000
   -2   -1   -1    7    7    0.001288   -0.000000
   -2   -1   -1    8    7   -0.000000    0.000000
   -2   -1   -1    9    7    0.000156   -0.000000
   -2   -1   -1   10    7    0.000191    0.000000
   -2   -1   -1   11    7    0.000052    0.000000
   -2   -1   -1   12    7   -0.000000   -0.000000
   -2   -1   -1   13    7    0.000323    0.000000
   -2   -1   -1   14    7    0.000000    0.000000
   -2   -1   -1    1    8   -0.000434    0.000000
   -2   -1   -1    2    8   -0.000000   -0.000000
   -2   -1   -1    3    8    0.000064    0.000000
   -2   -1   -1    4    8   -0.000188   -0.000000
   -2   -1   -1    5    8   -0.000000    0.000000
   -2   -1   -1    6    8    0.000644   -0.000000
   -2   -1   -1    7    8   -0.000000    0.000000
   -2   -1   -1    8    8   -0.000015   -0.000000
   -2   -1   -1    9    8    0.000052    0.000000
   -2   -1   -1   10    8   -0.000030   -0.000000
   -2   -1   -1   11    8    0.000187    0.000000
   -2   -1   -1   12    8    0.000441    0.000000
   -2   -1   -1   13    8    0.000000   -0.000000
   -2   -1   -1   14    8   -0.000159    0.000000
   -2   -1   -1    1    9    0.000322   -0.000000
   -2   -1   -1    2    9   -0.000308   -0.000000
   -2   -1   -1    3    9   -0.000557   -0.000000
   -2   -1   -1    4    9    0.000355   -0.000000
   -2   -1   -1    5    9    0.000372    0.000000
   -2   -1   -1    6    9   -0.000246    0.000000
   -2   -1   -1    7    9   -0.002669    0.000000
   -2   -1   -1    8    9    0.002049   -0.000000
   -2   -1   -1    9    9    0.000114    0.000000
   -2   -1   -1   10    9   -0.000000    0.000000
   -2   -1   -1   11    9    0.000295    0.000000
   -2   -1   -1   12    9   -0.000150   -0.000000
   -2   -1   -1   13    9   -0.000490    0.000000
   -2   -1   -1   14    9    0.000177   -0.000000
   -2   -1   -1    1   10    0.000123   -0.000000
   -2   -1   -1    2   10   -0.000020   -0.000000
   -2   -1   -1    3   10    0.000519    0.000000
   -2   -1   -1    4   10   -0.000214   -0.000000
   -2   -1   -1    5   10   -0.000020   -0.000000
   -2   -1   -1    6   10   -0.001537   -0.000000
   -2   -1   -1    7   10    0.000931    0.000000
   -2   -1   -1    8   10    0.000893   -0.000000
   -2   -1   -1    9   10   -0.000000    0.000000
   -2   -1   -1   10   10    0.000043    0.000000
   -2   -1   -1   11   10    0.000000   -0.000000
   -2   -1   -1   12   10    0.000889   -0.000000
   -2   -1   -1   13   10    0.000929    0.000000
   -2   -1   -1   14   10   -0.001539    0.000000
   -2   -1   -1    1   11   -0.000466   -0.000000
   -2   -1   -1    2   11    0.000372   -0.000000
   -2   -1   -1    3   11   -0.000557    0.000000
   -2   -1   -1    4   11   -0.000102   -0.000000
   -2   -1   -1    5   11   -0.000308   -0.000000
   -2   -1   -1    6   11    0.000175    0.000000
   -2   -1   -1    7   11   -0.000490   -0.000000
   -2   -1   -1    8   11   -0.000150    0.000000
   -2   -1   -1    9   11    0.000295    0.000000
   -2   -1   -1   10   11    0.000000   -0.000000
   -2   -1   -1   11   11    0.000114   -0.000000
   -2   -1   -1   12   11    0.002049    0.000000
   -2   -1   -1   13   11   -0.002669    0.000000
   -2   -1   -1   14   11   -0.000246   -0.000000
   -2   -1   -1    1   12    0.000378    0.000000
   -2   -1   -1    2   12   -0.000000   -0.000000
   -2   -1   -1    3   12    0.000064   -0.000000
   -2   -1   -1    4   12    0.000283    0.000000
   -2   -1   -1    5   12    0.000000   -0.000000
   -2   -1   -1    6   12   -0.000158   -0.000000
   -2   -1   -1    7   12    0.000000    0.000000
   -2   -1   -1    8   12    0.000441    0.000000
   -2   -1   -1    9   12    0.000187   -0.000000
   -2   -1   -1   10   12   -0.000031    0.000000
   -2   -1   -1   11   12    0.000052    0.000000
   -2   -1   -1   12   12   -0.000015    0.000000
   -2   -1   -1   13   12    0.000000    0.000000
   -2   -1   -1   14   12    0.000644    0.000000
   -2   -1   -1    1   13    0.000000    0.000000
   -2   -1   -1    2   13   -0.000038   -0.000000
   -2   -1   -1    3   13    0.000000   -0.000000
   -2   -1   -1    4   13    0.000000    0.000000
   -2   -1   -1    5   13    0.000327   -0.000000
   -2   -1   -1    6   13   -0.000000   -0.000000
   -2   -1   -1    7   13    0.000323   -0.000000
   -2   -1   -1    8   13    0.000000    0.000000
   -2   -1   -1    9   13    0.000052    0.000000
   -2   -1   -1   10   13    0.000192    0.000000
   -2   -1   -1   11   13    0.000156    0.000000
   -2   -1   -1   12   13    0.000000    0.000000
   -2   -1   -1   13   13    0.001288   -0.000000
   -2   -1   -1   14   13    0.000000    0.000000
   -2   -1   -1    1   14   -0.000380   -0.000000
   -2   -1   -1    2   14    0.000000    0.000000
   -2   -1   -1    3   14   -0.000142    0.000000
   -2   -1   -1    4   14    0.000291   -0.000000
   -2   -1   -1    5   14    0.000000    0.000000
   -2   -1   -1    6   14    0.000490   -0.000000
   -2   -1   -1    7   14    0.000000   -0.000000
   -2   -1   -1    8   14   -0.000284   -0.000000
   -2   -1   -1    9   14   -0.000031   -0.000000
   -2   -1   -1   10   14   -0.000616   -0.000000
   -2   -1   -1   11   14    0.000192   -0.000000
   -2   -1   -1   12   14    0.000644   -0.000000
   -2   -1   -1   13   14    0.000000   -0.000000
   -2   -1   -1   14   14    0.001001   -0.000000
   -2   -1    0    1    1   -0.000576    0.000000
   -2   -1    0    2    1   -0.000000    0.000000
   -2   -1    0    3    1    0.000000   -0.000000
   -2   -1    0    4    1    0.000564   -0.000000
   -2   -1    0    5    1   -0.000000   -0.000000
   -2   -1    0    6    1    0.000938   -0.000000
   -2   -1    0    7    1    0.000000   -0.000000
   -2   -1    0    8    1   -0.000880    0.000000
   -2   -1    0    9    1    0.000000    0.000000
   -2   -1    0   10    1   -0.000200   -0.000000
   -2   -1    0   11    1   -0.001657    0.000000
   -2   -1    0   12    1    0.000000    0.000000
   -2   -1    0   13    1    0.000000    0.000000
   -2   -1    0   14    1    0.001654    0.000000
   -2   -1    0    1    2   -0.000000    0.000000
   -2   -1    0    2    2    0.000047   -0.000000
   -2   -1    0    3    2   -0.000000    0.000000
   -2   -1    0    4    2    0.000000   -0.000000
   -2   -1    0    5    2    0.000000    0.000000
   -2   -1    0    6    2    0.000000    0.000000
   -2   -1    0    7    2    0.002258   -0.000000
   -2   -1    0    8    2    0.000000   -0.000000
   -2   -1    0    9    2    0.000900    0.000000
   -2   -1    0   10    2   -0.000000   -0.000000
   -2   -1    0   11    2    0.000000   -0.000000
   -2   -1    0   12    2   -0.000000    0.000000
   -2   -1    0   13    2   -0.000000    0.000000
   -2   -1    0   14    2   -0.000000   -0.000000
   -2   -1    0    1    3    0.000000    0.000000
   -2   -1    0    2    3   -0.000000    0.000000
   -2   -1    0    3    3    0.000148    0.000000
   -2   -1    0    4    3    0.000000    0.000000
   -2   -1    0    5    3   -0.000000    0.000000
   -2   -1    0    6    3   -0.000147   -0.000000
   -2   -1    0    7    3   -0.000000    0.000000
   -2   -1    0    8    3   -0.000040   -0.000000
   -2   -1    0    9    3   -0.001243    0.000000
   -2   -1    0   10    3   -0.000000    0.000000
   -2   -1    0   11    3    0.000000    0.000000
   -2   -1    0   12    3    0.000458    0.000000
   -2   -1    0   13    3   -0.000000   -0.000000
   -2   -1    0   14    3    0.000000    0.000000
   -2   -1    0    1    4    0.000564   -0.000000
   -2   -1    0    2    4    0.000000   -0.000000
   -2   -1    0    3    4    0.000000   -0.000000
   -2   -1    0    4    4   -0.000728    0.000000
   -2   -1    0    5    4    0.000000    0.000000
   -2   -1    0    6    4   -0.001000    0.000000
   -2   -1    0    7    4   -0.000000    0.000000
   -2   -1    0    8    4    0.000230    0.000000
   -2   -1    0    9    4   -0.000000    0.000000
   -2   -1    0   10    4    0.004383    0.000000
   -2   -1    0   11    4    0.004460   -0.000000
   -2   -1    0   12    4   -0.000000    0.000000
   -2   -1    0   13    4   -0.000000   -0.000000
   -2   -1    0   14    4   -0.000790   -0.000000
   -2   -1    0    1    5    0.000000   -0.000000
   -2   -1    0    2    5   -0.000000    0.000000
   -2   -1    0    3    5   -0.000000    0.000000
   -2   -1    0    4    5    0.000000    0.000000
   -2   -1    0    5    5   -0.001332   -0.000000
   -2   -1    0    6    5   -0.000000    0.000000
   -2   -1    0    7    5    0.000630    0.000000
   -2   -1    0    8    5   -0.000000   -0.000000
   -2   -1    0    9    5   -0.000000   -0.000000
   -2   -1    0   10    5   -0.002030   -0.000000
   -2   -1    0   11    5   -0.003285    0.000000
   -2   -1    0   12    5   -0.000000    0.000000
   -2   -1    0   13    5    0.001702   -0.000000
   -2   -1    0   14    5   -0.000000   -0.000000
   -2   -1    0    1    6    0.000938   -0.000000
   -2   -1    0    2    6    0.000000   -0.000000
   -2   -1    0    3    6    0.000147    0.000000
   -2   -1    0    4    6   -0.001000    0.000000
   -2   -1    0    5    6    0.000000    0.000000
   -2   -1    0    6    6   -0.001263   -0.000000
   -2   -1    0    7    6   -0.000000   -0.000000
   -2   -1    0    8    6    0.000000   -0.000000
   -2   -1    0    9    6   -0.000246   -0.000000
   -2   -1    0   10    6    0.001537   -0.000000
   -2   -1    0   11    6    0.000175   -0.000000
   -2   -1    0   12    6    0.000291   -0.000000
   -2   -1    0   13    6   -0.000000   -0.000000
   -2   -1    0   14    6   -0.001689   -0.000000
   -2   -1    0    1    7    0.000000    0.000000
   -2   -1    0    2    7    0.002258    0.000000
   -2   -1    0    3    7   -0.000000    0.000000
   -2   -1    0    4    7   -0.000000    0.000000
   -2   -1    0    5    7   -0.000630   -0.000000
   -2   -1    0    6    7   -0.000000   -0.000000
   -2   -1    0    7    7    0.002946    0.000000
   -2   -1    0    8    7    0.000000   -0.000000
   -2   -1    0    9    7    0.002669    0.000000
   -2   -1    0   10    7    0.000931    0.000000
   -2   -1    0   11    7    0.000490   -0.000000
   -2   -1    0   12    7   -0.000000    0.000000
   -2   -1    0   13    7   -0.000335    0.000000
   -2   -1    0   14    7    0.000000    0.000000
   -2   -1    0    1    8    0.000880   -0.000000
   -2   -1    0    2    8    0.000000   -0.000000
   -2   -1    0    3    8   -0.000040   -0.000000
   -2   -1    0    4    8   -0.000230   -0.000000
   -2   -1    0    5    8    0.000000    0.000000
   -2   -1    0    6    8    0.000000    0.000000
   -2   -1    0    7    8    0.000000   -0.000000
   -2   -1    0    8    8    0.001086    0.000000
   -2   -1    0    9    8    0.002049    0.000000
   -2   -1    0   10    8   -0.000893    0.000000
   -2   -1    0   11    8   -0.000150    0.000000
   -2   -1    0   12    8    0.000467   -0.000000
   -2   -1    0   13    8   -0.000000    0.000000
   -2   -1    0   14    8    0.000292   -0.000000
   -2   -1    0    1    9    0.000000    0.000000
   -2   -1    0    2    9    0.000900    0.000000
   -2   -1    0    3    9    0.001243    0.000000
   -2   -1    0    4    9   -0.000000    0.000000
   -2   -1    0    5    9    0.000000    0.000000
   -2   -1    0    6    9   -0.000246   -0.000000
   -2   -1    0    7    9    0.002669   -0.000000
   -2   -1    0    8    9   -0.002049    0.000000
   -2   -1    0    9    9   -0.000369    0.000000
   -2   -1    0   10    9    0.000000   -0.000000
   -2   -1    0   11    9   -0.000000   -0.000000
   -2   -1    0   12    9    0.003369   -0.000000
   -2   -1    0   13    9    0.000000   -0.000000
   -2   -1    0   14    9   -0.000000    0.000000
   -2   -1    0    1   10   -0.000200   -0.000000
   -2   -1    0    2   10   -0.000000    0.000000
   -2   -1    0    3   10    0.000000   -0.000000
   -2   -1    0    4   10    0.004383    0.000000
   -2   -1    0    5   10    0.002030   -0.000000
   -2   -1    0    6   10    0.001537    0.000000
   -2   -1    0    7   10    0.000931    0.000000
   -2   -1    0    8   10    0.000893    0.000000
   -2   -1    0    9   10    0.000000   -0.000000
   -2   -1    0   10   10   -0.001074   -0.000000
   -2   -1    0   11   10    0.000000    0.000000
   -2   -1    0   12   10   -0.000000    0.000000
   -2   -1    0   13   10   -0.001588    0.000000
   -2   -1    0   14   10    0.006232    0.000000
   -2   -1    0    1   11    0.001657    0.000000
   -2   -1    0    2   11    0.000000   -0.000000
   -2   -1    0    3   11   -0.000000   -0.000000
   -2   -1    0    4   11   -0.004460   -0.000000
   -2   -1    0    5   11   -0.003285    0.000000
   -2   -1    0    6   11   -0.000175    0.000000
   -2   -1    0    7   11   -0.000490   -0.000000
   -2   -1    0    8   11   -0.000150   -0.000000
   -2   -1    0    9   11    0.000000   -0.000000
   -2   -1    0   10   11    0.000000    0.000000
   -2   -1    0   11   11   -0.001721   -0.000000
   -2   -1    0   12   11   -0.000000   -0.000000
   -2   -1    0   13   11    0.003385    0.000000
   -2   -1    0   14   11   -0.005256   -0.000000
   -2   -1    0    1   12   -0.000000   -0.000000
   -2   -1    0    2   12    0.000000   -0.000000
   -2   -1    0    3   12   -0.000081   -0.000000
   -2   -1    0    4   12   -0.000000   -0.000000
   -2   -1    0    5   12    0.000000    0.000000
   -2   -1    0    6   12   -0.000158    0.000000
   -2   -1    0    7   12   -0.000000    0.000000
   -2   -1    0    8   12   -0.000441   -0.000000
   -2   -1    0    9   12   -0.000568   -0.000000
   -2   -1    0   10   12   -0.000000   -0.000000
   -2   -1    0   11   12    0.000000   -0.000000
   -2   -1    0   12   12   -0.000731   -0.000000
   -2   -1    0   13   12   -0.000000   -0.000000
   -2   -1    0   14   12   -0.000000   -0.000000
   -2   -1    0    1   13    0.000000   -0.000000
   -2   -1    0    2   13    0.000000   -0.000000
   -2   -1    0    3   13    0.000000   -0.000000
   -2   -1    0    4   13   -0.000000   -0.000000
   -2   -1    0    5   13    0.000723    0.000000
   -2   -1    0    6   13   -0.000000   -0.000000
   -2   -1    0    7   13    0.000323   -0.000000
   -2   -1    0    8   13    0.000000    0.000000
   -2   -1    0    9   13   -0.000000   -0.000000
   -2   -1    0   10   13    0.001933   -0.000000
   -2   -1    0   11   13    0.001663    0.000000
   -2   -1    0   12   13   -0.000000   -0.000000
   -2   -1    0   13   13    0.000443    0.000000
   -2   -1    0   14   13   -0.000000   -0.000000
   -2   -1    0    1   14    0.001274    0.000000
   -2   -1    0    2   14    0.000000    0.000000
   -2   -1    0    3   14    0.000000   -0.000000
   -2   -1    0    4   14   -0.001626   -0.000000
   -2   -1    0    5   14   -0.000000   -0.000000
   -2   -1    0    6   14   -0.000490    0.000000
   -2   -1    0    7   14   -0.000000   -0.000000
   -2   -1    0    8   14   -0.000284    0.000000
   -2   -1    0    9   14    0.000000    0.000000
   -2   -1    0   10   14    0.004210    0.000000
   -2   -1    0   11   14    0.001933   -0.000000
   -2   -1    0   12   14   -0.000000    0.000000
   -2   -1    0   13   14   -0.000000    0.000000
   -2   -1    0   14   14   -0.000693    0.000000
   -2   -1    1    1    1   -0.000257   -0.000000
   -2   -1    1    2    1    0.000000   -0.000000
   -2   -1    1    3    1    0.000024    0.000000
   -2   -1    1    4    1   -0.000158   -0.000000
   -2   -1    1    5    1    0.000000    0.000000
   -2   -1    1    6    1   -0.000063   -0.000000
   -2   -1    1    7    1   -0.000000   -0.000000
   -2   -1    1    8    1    0.000434   -0.000000
   -2   -1    1    9    1    0.000322   -0.000000
   -2   -1    1   10    1    0.000123   -0.000000
   -2   -1    1   11    1    0.000466    0.000000
   -2   -1    1   12    1   -0.000236   -0.000000
   -2   -1    1   13    1    0.000000   -0.000000
   -2   -1    1   14    1   -0.000396    0.000000
   -2   -1    1    1    2    0.000000   -0.000000
   -2   -1    1    2    2    0.000112   -0.000000
   -2   -1    1    3    2   -0.000000   -0.000000
   -2   -1    1    4    2   -0.000000   -0.000000
[...]
    2    2    0    8   14   -0.000284   -0.000000
    2    2    0    9   14   -0.000000    0.000000
    2    2    0   10   14   -0.004210    0.000000
    2    2    0   11   14    0.001933   -0.000000
    2    2    0   12   14   -0.000000   -0.000000
    2    2    0   13   14   -0.000000   -0.000000
    2    2    0   14   14    0.000677    0.000000
    2    2    1    1    1    0.000271   -0.000000
    2    2    1    2    1    0.000000   -0.000000
    2    2    1    3    1   -0.000000   -0.000000
    2    2    1    4    1    0.000000   -0.000000
    2    2    1    5    1   -0.000000   -0.000000
    2    2    1    6    1    0.000671   -0.000000
    2    2    1    7    1   -0.000000    0.000000
    2    2    1    8    1   -0.000000    0.000000
    2    2    1    9    1    0.000378    0.000000
    2    2    1   10    1    0.000380   -0.000000
    2    2    1   11    1    0.000000   -0.000000
    2    2    1   12    1    0.000378    0.000000
    2    2    1   13    1    0.000000    0.000000
    2    2    1   14    1    0.000380   -0.000000
    2    2    1    1    2    0.000000   -0.000000
    2    2    1    2    2    0.000086   -0.000000
    2    2    1    3    2    0.000000    0.000000
    2    2    1    4    2   -0.000000    0.000000
    2    2    1    5    2   -0.000000    0.000000
    2    2    1    6    2   -0.000000   -0.000000
    2    2    1    7    2    0.000012    0.000000
    2    2    1    8    2    0.000000    0.000000
    2    2    1    9    2   -0.000064   -0.000000
    2    2    1   10    2   -0.000142   -0.000000
    2    2    1   11    2   -0.000000   -0.000000
    2    2    1   12    2   -0.000000    0.000000
    2    2    1   13    2   -0.000038    0.000000
    2    2    1   14    2    0.000000    0.000000
    2    2    1    1    3   -0.000000    0.000000
    2    2    1    2    3    0.000000    0.000000
    2    2    1    3    3    0.000086    0.000000
    2    2    1    4    3    0.000000    0.000000
    2    2    1    5    3   -0.000000    0.000000
    2    2    1    6    3    0.000000   -0.000000
    2    2    1    7    3   -0.000000    0.000000
    2    2    1    8    3    0.000012    0.000000
    2    2    1    9    3   -0.000000   -0.000000
    2    2    1   10    3   -0.000000    0.000000
    2    2    1   11    3   -0.000038    0.000000
    2    2    1   12    3   -0.000064   -0.000000
    2    2    1   13    3    0.000000   -0.000000
    2    2    1   14    3   -0.000142    0.000000
    2    2    1    1    4    0.000000   -0.000000
    2    2    1    2    4   -0.000000    0.000000
    2    2    1    3    4    0.000000   -0.000000
    2    2    1    4    4    0.000353    0.000000
    2    2    1    5    4   -0.000000   -0.000000
    2    2    1    6    4   -0.000000   -0.000000
    2    2    1    7    4    0.000000   -0.000000
    2    2    1    8    4   -0.000000    0.000000
    2    2    1    9    4   -0.000283   -0.000000
    2    2    1   10    4    0.000291    0.000000
    2    2    1   11    4    0.000000   -0.000000
    2    2    1   12    4    0.000283    0.000000
    2    2    1   13    4    0.000000    0.000000
    2    2    1   14    4   -0.000291   -0.000000
    2    2    1    1    5   -0.000000   -0.000000
    2    2    1    2    5   -0.000000    0.000000
    2    2    1    3    5    0.000000   -0.000000
    2    2    1    4    5   -0.000000   -0.000000
    2    2    1    5    5   -0.000540   -0.000000
    2    2    1    6    5   -0.000000    0.000000
    2    2    1    7    5    0.000000   -0.000000
    2    2    1    8    5    0.000000   -0.000000
    2    2    1    9    5    0.000000    0.000000
    2    2    1   10    5    0.000000   -0.000000
    2    2    1   11    5   -0.000327    0.000000
    2    2    1   12    5   -0.000000   -0.000000
    2    2    1   13    5   -0.000327   -0.000000
    2    2    1   14    5   -0.000000   -0.000000
    2    2    1    1    6    0.000838   -0.000000
    2    2    1    2    6   -0.000000   -0.000000
    2    2    1    3    6   -0.000000    0.000000
    2    2    1    4    6    0.000000   -0.000000
    2    2    1    5    6   -0.000000    0.000000
    2    2    1    6    6   -0.000832    0.000000
    2    2    1    7    6    0.000000   -0.000000
    2    2    1    8    6    0.000000   -0.000000
    2    2    1    9    6   -0.000158    0.000000
    2    2    1   10    6   -0.000490    0.000000
    2    2    1   11    6   -0.000000   -0.000000
    2    2    1   12    6   -0.000158   -0.000000
    2    2    1   13    6   -0.000000   -0.000000
    2    2    1   14    6   -0.000490   -0.000000
    2    2    1    1    7   -0.000000   -0.000000
    2    2    1    2    7   -0.000193    0.000000
    2    2    1    3    7    0.000000   -0.000000
    2    2    1    4    7    0.000000   -0.000000
    2    2    1    5    7    0.000000    0.000000
    2    2    1    6    7    0.000000   -0.000000
    2    2    1    7    7    0.000233   -0.000000
    2    2    1    8    7    0.000000   -0.000000
    2    2    1    9    7   -0.000441    0.000000
    2    2    1   10    7   -0.000284   -0.000000
    2    2    1   11    7    0.000000    0.000000
    2    2    1   12    7   -0.000000    0.000000
    2    2    1   13    7    0.000323   -0.000000
    2    2    1   14    7   -0.000000   -0.000000
    2    2    1    1    8    0.000000   -0.000000
    2    2    1    2    8    0.000000    0.000000
    2    2    1    3    8   -0.000193    0.000000
    2    2    1    4    8   -0.000000   -0.000000
    2    2    1    5    8    0.000000    0.000000
    2    2    1    6    8    0.000000    0.000000
    2    2    1    7    8    0.000000   -0.000000
    2    2    1    8    8    0.000233    0.000000
    2    2    1    9    8    0.000000   -0.000000
    2    2    1   10    8    0.000000   -0.000000
    2    2    1   11    8    0.000323   -0.000000
    2    2    1   12    8   -0.000441   -0.000000
    2    2    1   13    8    0.000000    0.000000
    2    2    1   14    8   -0.000284   -0.000000
    2    2    1    1    9   -0.000378   -0.000000
    2    2    1    2    9   -0.000064    0.000000
    2    2    1    3    9    0.000000    0.000000
    2    2    1    4    9    0.000283    0.000000
    2    2    1    5    9    0.000000    0.000000
    2    2    1    6    9    0.000192    0.000000
    2    2    1    7    9    0.000171    0.000000
    2    2    1    8    9   -0.000000   -0.000000
    2    2    1    9    9    0.000113    0.000000
    2    2    1   10    9   -0.000000    0.000000
    2    2    1   11    9    0.000000    0.000000
    2    2    1   12    9    0.000187    0.000000
    2    2    1   13    9    0.000052   -0.000000
    2    2    1   14    9    0.000031    0.000000
    2    2    1    1   10    0.000380   -0.000000
    2    2    1    2   10    0.000142   -0.000000
    2    2    1    3   10   -0.000000    0.000000
    2    2    1    4   10    0.000291    0.000000
    2    2    1    5   10   -0.000000    0.000000
    2    2    1    6   10    0.000031    0.000000
    2    2    1    7   10    0.000192    0.000000
    2    2    1    8   10   -0.000000   -0.000000
    2    2    1    9   10   -0.000000    0.000000
    2    2    1   10   10   -0.000674   -0.000000
    2    2    1   11   10   -0.000000    0.000000
    2    2    1   12   10   -0.000031   -0.000000
    2    2    1   13   10    0.000192   -0.000000
    2    2    1   14   10    0.000616   -0.000000
    2    2    1    1   11   -0.000000   -0.000000
    2    2    1    2   11    0.000000   -0.000000
    2    2    1    3   11    0.000038    0.000000
    2    2    1    4   11    0.000000   -0.000000
    2    2    1    5   11   -0.000327    0.000000
    2    2    1    6   11    0.000000    0.000000
    2    2    1    7   11   -0.000000    0.000000
    2    2    1    8   11    0.000120   -0.000000
    2    2    1    9   11    0.000000    0.000000
    2    2    1   10   11   -0.000000   -0.000000
    2    2    1   11   11   -0.000103    0.000000
    2    2    1   12   11   -0.000052   -0.000000
    2    2    1   13   11   -0.000156    0.000000
    2    2    1   14   11    0.000192   -0.000000
    2    2    1    1   12   -0.000378   -0.000000
    2    2    1    2   12    0.000000   -0.000000
    2    2    1    3   12   -0.000064   -0.000000
    2    2    1    4   12   -0.000283   -0.000000
    2    2    1    5   12    0.000000   -0.000000
    2    2    1    6   12    0.000192    0.000000
    2    2    1    7   12    0.000000    0.000000
    2    2    1    8   12    0.000171   -0.000000
    2    2    1    9   12    0.000187    0.000000
    2    2    1   10   12    0.000031    0.000000
    2    2    1   11   12    0.000052    0.000000
    2    2    1   12   12    0.000113   -0.000000
    2    2    1   13   12    0.000000    0.000000
    2    2    1   14   12   -0.000000   -0.000000
    2    2    1    1   13   -0.000000   -0.000000
    2    2    1    2   13    0.000038    0.000000
    2    2    1    3   13   -0.000000   -0.000000
    2    2    1    4   13    0.000000    0.000000
    2    2    1    5   13   -0.000327   -0.000000
    2    2    1    6   13    0.000000   -0.000000
    2    2    1    7   13    0.000120   -0.000000
    2    2    1    8   13    0.000000   -0.000000
    2    2    1    9   13   -0.000052   -0.000000
    2    2    1   10   13    0.000192    0.000000
    2    2    1   11   13   -0.000156    0.000000
    2    2    1   12   13    0.000000   -0.000000
    2    2    1   13   13   -0.000103    0.000000
    2    2    1   14   13    0.000000   -0.000000
    2    2    1    1   14    0.000380   -0.000000
    2    2    1    2   14   -0.000000    0.000000
    2    2    1    3   14    0.000142   -0.000000
    2    2    1    4   14   -0.000291   -0.000000
    2    2    1    5   14   -0.000000    0.000000
    2    2    1    6   14    0.000031    0.000000
    2    2    1    7   14    0.000000    0.000000
    2    2    1    8   14    0.000192    0.000000
    2    2    1    9   14   -0.000031   -0.000000
    2    2    1   10   14    0.000616    0.000000
    2    2    1   11   14    0.000192   -0.000000
    2    2    1   12   14   -0.000000    0.000000
    2    2    1   13   14    0.000000    0.000000
    2    2    1   14   14   -0.000674   -0.000000
    2    2    2    1    1   -0.000311    0.000000
    2    2    2    2    1   -0.000000    0.000000
    2    2    2    3    1   -0.000000    0.000000
    2    2    2    4    1    0.000000    0.000000
    2    2    2    5    1    0.000000    0.000000
    2    2    2    6    1   -0.000671   -0.000000
    2    2    2    7    1    0.000000   -0.000000
    2    2    2    8    1    0.000000   -0.000000
    2    2    2    9    1    0.000000   -0.000000
    2    2    2   10    1    0.000335   -0.000000
    2    2    2   11    1    0.000000   -0.000000
    2    2    2   12    1    0.000000   -0.000000
    2    2    2   13    1    0.000000    0.000000
    2    2    2   14    1    0.000335   -0.000000
    2    2    2    1    2   -0.000000   -0.000000
    2    2    2    2    2   -0.000136    0.000000
    2    2    2    3    2    0.000000    0.000000
    2    2    2    4    2    0.000000   -0.000000
    2    2    2    5    2    0.000000   -0.000000
    2    2    2    6    2    0.000000   -0.000000
    2    2    2    7    2   -0.000012    0.000000
    2    2    2    8    2   -0.000000   -0.000000
    2    2    2    9    2   -0.000012    0.000000
    2    2    2   10    2   -0.000000   -0.000000
    2    2    2   11    2   -0.000000    0.000000
    2    2    2   12    2   -0.000000    0.000000
    2    2    2   13    2    0.000000   -0.000000
    2    2    2   14    2    0.000000   -0.000000
    2    2    2    1    3   -0.000000   -0.000000
    2    2    2    2    3    0.000000   -0.000000
    2    2    2    3    3   -0.000136    0.000000
    2    2    2    4    3   -0.000000   -0.000000
    2    2    2    5    3    0.000000   -0.000000
    2    2    2    6    3   -0.000000    0.000000
    2    2    2    7    3   -0.000000    0.000000
    2    2    2    8    3   -0.000012    0.000000
    2    2    2    9    3   -0.000000   -0.000000
    2    2    2   10    3   -0.000000    0.000000
    2    2    2   11    3   -0.000000   -0.000000
    2    2    2   12    3   -0.000012   -0.000000
    2    2    2   13    3    0.000000   -0.000000
    2    2    2   14    3   -0.000000   -0.000000
    2    2    2    1    4    0.000000   -0.000000
    2    2    2    2    4    0.000000    0.000000
    2    2    2    3    4   -0.000000    0.000000
    2    2    2    4    4   -0.000311    0.000000
    2    2    2    5    4   -0.000000    0.000000
    2    2    2    6    4    0.000000   -0.000000
    2    2    2    7    4   -0.000000   -0.000000
    2    2    2    8    4   -0.000000   -0.000000
    2    2    2    9    4   -0.000000   -0.000000
    2    2    2   10    4   -0.000581    0.000000
    2    2    2   11    4    0.000000    0.000000
    2    2    2   12    4    0.000000   -0.000000
    2    2    2   13    4    0.000000   -0.000000
    2    2    2   14    4    0.000581   -0.000000
    2    2    2    1    5    0.000000   -0.000000
    2    2    2    2    5    0.000000    0.000000
    2    2    2    3    5    0.000000    0.000000
    2    2    2    4    5   -0.000000   -0.000000
    2    2    2    5    5   -0.000136    0.000000
    2    2    2    6    5    0.000000    0.000000
    2    2    2    7    5    0.000000   -0.000000
    2    2    2    8    5    0.000000   -0.000000
    2    2    2    9    5   -0.000000    0.000000
    2    2    2   10    5    0.000000    0.000000
    2    2    2   11    5   -0.000012    0.000000
    2    2    2   12    5    0.000000   -0.000000
    2    2    2   13    5   -0.000012   -0.000000
    2    2    2   14    5   -0.000000   -0.000000
    2    2    2    1    6   -0.000671    0.000000
    2    2    2    2    6    0.000000    0.000000
    2    2    2    3    6   -0.000000   -0.000000
    2    2    2    4    6    0.000000    0.000000
    2    2    2    5    6    0.000000   -0.000000
    2    2    2    6    6    0.000691    0.000000
    2    2    2    7    6   -0.000000    0.000000
    2    2    2    8    6    0.000000    0.000000
    2    2    2    9    6    0.000192   -0.000000
    2    2    2   10    6   -0.000031   -0.000000
    2    2    2   11    6    0.000000    0.000000
    2    2    2   12    6    0.000192    0.000000
    2    2    2   13    6    0.000000   -0.000000
    2    2    2   14    6   -0.000031    0.000000
    2    2    2    1    7    0.000000    0.000000
    2    2    2    2    7   -0.000012   -0.000000
    2    2    2    3    7   -0.000000   -0.000000
    2    2    2    4    7   -0.000000    0.000000
    2    2    2    5    7    0.000000    0.000000
    2    2    2    6    7   -0.000000   -0.000000
    2    2    2    7    7    0.000038    0.000000
    2    2    2    8    7   -0.000000    0.000000
    2    2    2    9    7   -0.000171    0.000000
    2    2    2   10    7    0.000192    0.000000
    2    2    2   11    7    0.000000    0.000000
    2    2    2   12    7   -0.000000    0.000000
    2    2    2   13    7    0.000120   -0.000000
    2    2    2   14    7   -0.000000    0.000000
    2    2    2    1    8    0.000000    0.000000
    2    2    2    2    8   -0.000000    0.000000
    2    2    2    3    8   -0.000012   -0.000000
    2    2    2    4    8   -0.000000    0.000000
    2    2    2    5    8    0.000000    0.000000
    2    2    2    6    8    0.000000   -0.000000
    2    2    2    7    8   -0.000000   -0.000000
    2    2    2    8    8    0.000038    0.000000
    2    2    2    9    8   -0.000000   -0.000000
    2    2    2   10    8   -0.000000    0.000000
    2    2    2   11    8    0.000120    0.000000
    2    2    2   12    8   -0.000171   -0.000000
    2    2    2   13    8   -0.000000    0.000000
    2    2    2   14    8    0.000192    0.000000
    2    2    2    1    9    0.000000    0.000000
    2    2    2    2    9   -0.000012   -0.000000
    2    2    2    3    9   -0.000000    0.000000
    2    2    2    4    9   -0.000000    0.000000
    2    2    2    5    9   -0.000000   -0.000000
    2    2    2    6    9    0.000192    0.000000
    2    2    2    7    9   -0.000171   -0.000000
    2    2    2    8    9   -0.000000    0.000000
    2    2    2    9    9    0.000038    0.000000
    2    2    2   10    9    0.000000    0.000000
    2    2    2   11    9   -0.000000   -0.000000
    2    2    2   12    9    0.000120   -0.000000
    2    2    2   13    9    0.000000   -0.000000
    2    2    2   14    9    0.000000   -0.000000
    2    2    2    1   10    0.000335    0.000000
    2    2    2    2   10   -0.000000    0.000000
    2    2    2    3   10   -0.000000   -0.000000
    2    2    2    4   10   -0.000581   -0.000000
    2    2    2    5   10    0.000000   -0.000000
    2    2    2    6   10   -0.000031    0.000000
    2    2    2    7   10    0.000192   -0.000000
    2    2    2    8   10   -0.000000   -0.000000
    2    2    2    9   10    0.000000   -0.000000
    2    2    2   10   10    0.000691    0.000000
    2    2    2   11   10   -0.000000   -0.000000
    2    2    2   12   10   -0.000000   -0.000000
    2    2    2   13   10    0.000192    0.000000
    2    2    2   14   10   -0.000032   -0.000000
    2    2    2    1   11    0.000000    0.000000
    2    2    2    2   11   -0.000000   -0.000000
    2    2    2    3   11   -0.000000    0.000000
    2    2    2    4   11    0.000000   -0.000000
    2    2    2    5   11   -0.000012   -0.000000
    2    2    2    6   11    0.000000   -0.000000
    2    2    2    7   11    0.000000   -0.000000
    2    2    2    8   11    0.000120   -0.000000
    2    2    2    9   11   -0.000000    0.000000
    2    2    2   10   11   -0.000000    0.000000
    2    2    2   11   11    0.000038    0.000000
    2    2    2   12   11   -0.000000    0.000000
    2    2    2   13   11   -0.000171    0.000000
    2    2    2   14   11    0.000192    0.000000
    2    2    2    1   12    0.000000    0.000000
    2    2    2    2   12   -0.000000   -0.000000
    2    2    2    3   12   -0.000012    0.000000
    2    2    2    4   12    0.000000    0.000000
    2    2    2    5   12    0.000000    0.000000
    2    2    2    6   12    0.000192   -0.000000
    2    2    2    7   12   -0.000000   -0.000000
    2    2    2    8   12   -0.000171    0.000000
    2    2    2    9   12    0.000120    0.000000
    2    2    2   10   12   -0.000000    0.000000
    2    2    2   11   12   -0.000000   -0.000000
    2    2    2   12   12    0.000038    0.000000
    2    2    2   13   12   -0.000000   -0.000000
    2    2    2   14   12    0.000000    0.000000
    2    2    2    1   13    0.000000   -0.000000
    2    2    2    2   13    0.000000    0.000000
    2    2    2    3   13    0.000000    0.000000
    2    2    2    4   13    0.000000    0.000000
    2    2    2    5   13   -0.000012    0.000000
    2    2    2    6   13    0.000000    0.000000
    2    2    2    7   13    0.000120    0.000000
    2    2    2    8   13   -0.000000   -0.000000
    2    2    2    9   13    0.000000    0.000000
    2    2    2   10   13    0.000192   -0.000000
    2    2    2   11   13   -0.000171   -0.000000
    2    2    2   12   13   -0.000000    0.000000
    2    2    2   13   13    0.000038    0.000000
    2    2    2   14   13    0.000000    0.000000
    2    2    2    1   14    0.000335    0.000000
    2    2    2    2   14    0.000000    0.000000
    2    2    2    3   14   -0.000000    0.000000
    2    2    2    4   14    0.000581    0.000000
    2    2    2    5   14   -0.000000    0.000000
    2    2    2    6   14   -0.000031   -0.000000
    2    2    2    7   14   -0.000000   -0.000000
    2    2    2    8   14    0.000192   -0.000000
    2    2    2    9   14    0.000000    0.000000
    2    2    2   10   14   -0.000032    0.000000
    2    2    2   11   14    0.000192   -0.000000
    2    2    2   12   14    0.000000   -0.000000
    2    2    2   13   14    0.000000   -0.000000
    2    2    2   14   14    0.000691    0.000000
