<?xml version="1.0" encoding="UTF-8" ?>
<psml version="1.1" energy_unit="hartree" length_unit="bohr"
 uuid="ee8b0790-be41-11e7-6637-6f78df7df373"
 xmlns="http://esl.cecam.org/PSML/ns/1.1">
<provenance creator="ONCVPSP-3.3.0+psml-3.3.0-73 (scalar-relativistic)"
 date="2017-10-31">
<annotation action="semilocal-pseudopotential-generation"
 action-cont="projectors-generation" />
<input-file name="oncvpsp-input">
<![CDATA[# atsym z nc nv iexc psfile
Fe 26 3 4 4 upf
# n l f
1 0 2.0
2 0 2.0
2 1 6.0
3 0 2.0
3 1 6.0
3 2 6.0
4 0 2.0
# lmax
2
# l rc ep ncon nbas qcut
0 1.25 0.0 3 7 9.4
1 1.2 0.0 3 7 9.4
2 1.55 0.0 3 7 9.4
# lloc lpopt rc5 dvloc0
4 5 1.1 0.0
# l nproj debl
0 2 1.0
1 2 0.8
2 2 0.8
# icmod fcfact rcfact
3 3.0 1.7
# epsh1 epsh2 depsh
-24.0 12.0 0.02
# rlmax drl
6.0 0.01
 0
]]>
</input-file>
</provenance>
<pseudo-atom-spec atomic-label="Fe" atomic-number="26" z-pseudo="16"
 flavor="Hamann&apos;s oncvpsp" relativity="scalar" spin-dft="no"
 core-corrections="yes">
<annotation pseudo-energy="-121.607782415" />
<exchange-correlation>
<annotation oncvpsp-xc-code="4" oncvpsp-xc-type="GGA -- Perdew-Burke-Ernzerhof" />
<libxc-info number-of-functionals="2">
<functional name="Perdew, Burke &amp; Ernzerhof (GGA)" type="exchange" id="101" />
<functional name="Perdew, Burke &amp; Ernzerhof (GGA)" type="correlation"
 id="130" />
</libxc-info>
</exchange-correlation>
<valence-configuration total-valence-charge="16">
<shell n="3" l="s" occupation="2" />
<shell n="3" l="p" occupation="6" />
<shell n="3" l="d" occupation="6" />
<shell n="4" l="s" occupation="2" />
</valence-configuration>
</pseudo-atom-spec>
<grid npts="457">
<annotation type="sampled from oncvpsp log grid"
 recipe="r(i:1..N) = r1*exp(a*(i-1)) + r=0; resampled"
 recipe-cont="r1: scale; a: step" scale="0.192307692308E-04"
 step="0.119285708653E-01" delta="0.500000000000E-02" rmax="44.2248135897" />
<grid-data>
  0.000000000000E+00  5.050053692967E-03  1.008708593772E-02  1.513223739776E-02
  2.014816255451E-02  2.527348802918E-02  3.058816214668E-02  3.571906205505E-02
  4.072730601400E-02  4.588712082187E-02  5.108759065353E-02  5.620300303659E-02
  6.183062285620E-02  6.721515569429E-02  7.306860171076E-02  7.848991730107E-02
  8.431346671058E-02  8.949515180459E-02  9.499528970881E-02  1.008334516999E-01
  1.070304118539E-01  1.122610879123E-01  1.177473919885E-01  1.235018168622E-01
  1.295374658469E-01  1.358680826271E-01  1.425080825541E-01  1.477001832717E-01
  1.530814515745E-01  1.586587795431E-01  1.644393103617E-01  1.704304474680E-01
  1.766398640339E-01  1.830755127941E-01  1.897456362307E-01  1.966587771303E-01
  2.038237895251E-01  2.112498500326E-01  2.163502664118E-01  2.215738272440E-01
  2.269235057290E-01  2.324023468513E-01  2.380134691137E-01  2.437600663120E-01
  2.496454093530E-01  2.556728481164E-01  2.618458133614E-01  2.681678186792E-01
  2.746424624934E-01  2.812734301078E-01  2.880644958043E-01  2.950195249910E-01
  3.021424764024E-01  3.094374043527E-01  3.169084610433E-01  3.245598989268E-01
  3.323960731265E-01  3.404214439160E-01  3.486405792579E-01  3.570581574035E-01
  3.656789695559E-01  3.745079225969E-01  3.835500418800E-01  3.928104740912E-01
  4.022944901776E-01  4.120074883485E-01  4.219549971472E-01  4.270184571129E-01
  4.321426785983E-01  4.373283907415E-01  4.425763314304E-01  4.478872474075E-01
  4.532618943764E-01  4.587010371089E-01  4.642054495543E-01  4.697759149489E-01
  4.754132259283E-01  4.811181846394E-01  4.868916028551E-01  4.927343020894E-01
  4.986471137144E-01  5.046308790790E-01  5.106864496280E-01  5.168146870235E-01
  5.230164632678E-01  5.292926608270E-01  5.356441727569E-01  5.420719028300E-01
  5.485767656640E-01  5.551596868519E-01  5.618216030941E-01  5.685634623313E-01
  5.753862238793E-01  5.822908585658E-01  5.892783488686E-01  5.963496890550E-01
  6.035058853237E-01  6.107479559476E-01  6.180769314189E-01  6.254938545960E-01
  6.329997808511E-01  6.405957782213E-01  6.482829275600E-01  6.560623226907E-01
  6.639350705630E-01  6.719022914097E-01  6.799651189067E-01  6.881247003335E-01
  6.963821967375E-01  7.047387830984E-01  7.131956484956E-01  7.217539962775E-01
  7.304150442328E-01  7.391800247636E-01  7.480501850608E-01  7.570267872815E-01
  7.661111087289E-01  7.753044420337E-01  7.846080953381E-01  7.940233924821E-01
  8.035516731919E-01  8.131942932702E-01  8.229526247895E-01  8.328280562869E-01
  8.428219929624E-01  8.529358568779E-01  8.631710871605E-01  8.735291402064E-01
  8.840114898889E-01  8.946196277675E-01  9.053550633007E-01  9.162193240603E-01
  9.272139559491E-01  9.383405234205E-01  9.496006097015E-01  9.609958170179E-01
  9.725277668221E-01  9.841981000240E-01  9.960084772243E-01  1.007960578951E+00
  1.020056105898E+00  1.032296779169E+00  1.044684340519E+00  1.057220552605E+00
  1.069907199237E+00  1.082746085628E+00  1.095739038655E+00  1.108887907119E+00
  1.122194562004E+00  1.135660896748E+00  1.149288827509E+00  1.163080293440E+00
  1.177037256961E+00  1.191161704044E+00  1.205455644493E+00  1.219921112227E+00
  1.234560165573E+00  1.249374887560E+00  1.264367386211E+00  1.279539794846E+00
  1.294894272384E+00  1.310433003652E+00  1.326158199696E+00  1.342072098093E+00
  1.358176963270E+00  1.374475086829E+00  1.390968787871E+00  1.407660413325E+00
  1.424552338285E+00  1.441646966345E+00  1.458946729941E+00  1.476454090700E+00
  1.494171539788E+00  1.512101598266E+00  1.530246817445E+00  1.548609779254E+00
  1.567193096605E+00  1.585999413765E+00  1.605031406730E+00  1.624291783611E+00
  1.643783285014E+00  1.663508684434E+00  1.683470788647E+00  1.703672438111E+00
  1.724116507368E+00  1.744805905457E+00  1.765743576322E+00  1.786932499238E+00
  1.808375689229E+00  1.830076197500E+00  1.852037111870E+00  1.874261557212E+00
  1.896752695899E+00  1.919513728250E+00  1.942547892989E+00  1.965858467705E+00
  1.989448769317E+00  2.013322154549E+00  2.037482020403E+00  2.061931804648E+00
  2.086674986304E+00  2.111715086140E+00  2.137055667173E+00  2.162700335179E+00
  2.188652739202E+00  2.214916572072E+00  2.241495570937E+00  2.268393517788E+00
  2.295614240002E+00  2.323161610882E+00  2.351039550212E+00  2.379252024815E+00
  2.407803049112E+00  2.436696685702E+00  2.465937045930E+00  2.495528290481E+00
  2.525474629967E+00  2.555780325527E+00  2.586449689433E+00  2.617487085706E+00
  2.648896930735E+00  2.680683693904E+00  2.712851898230E+00  2.745406121009E+00
  2.778350994461E+00  2.811691206395E+00  2.845431500872E+00  2.879576678882E+00
  2.914131599029E+00  2.949101178217E+00  2.984490392356E+00  3.020304277064E+00
  3.056547928389E+00  3.093226503529E+00  3.130345221572E+00  3.167909364230E+00
  3.205924276601E+00  3.244395367920E+00  3.283328112335E+00  3.322728049683E+00
  3.362600786280E+00  3.402951995715E+00  3.443787419664E+00  3.485112868700E+00
  3.526934223124E+00  3.569257433801E+00  3.612088523007E+00  3.655433585283E+00
  3.699298788307E+00  3.743690373766E+00  3.788614658251E+00  3.834078034150E+00
  3.880086970560E+00  3.926648014207E+00  3.973767790377E+00  4.021453003862E+00
  4.069710439908E+00  4.118546965187E+00  4.167969528769E+00  4.217985163115E+00
  4.268600985072E+00  4.319824196893E+00  4.371662087256E+00  4.424122032303E+00
  4.477211496690E+00  4.530938034651E+00  4.585309291066E+00  4.640333002559E+00
  4.696016998590E+00  4.752369202573E+00  4.809397633004E+00  4.867110404600E+00
  4.925515729455E+00  4.984621918209E+00  5.044437381227E+00  5.104970629802E+00
  5.166230277360E+00  5.228225040688E+00  5.290963741176E+00  5.354455306070E+00
  5.418708769743E+00  5.483733274980E+00  5.549538074280E+00  5.616132531171E+00
  5.683526121545E+00  5.751728435004E+00  5.820749176224E+00  5.890598166338E+00
  5.961285344334E+00  6.032820768466E+00  6.105214617688E+00  6.178477193100E+00
  6.252618919418E+00  6.327650346451E+00  6.403582150608E+00  6.480425136415E+00
  6.558190238052E+00  6.636888520909E+00  6.716531183160E+00  6.797129557358E+00
  6.878695112046E+00  6.961239453391E+00  7.044774326831E+00  7.129311618753E+00
  7.214863358178E+00  7.301441718476E+00  7.389059019098E+00  7.477727727327E+00
  7.567460460055E+00  7.658269985576E+00  7.750169225403E+00  7.843171256108E+00
  7.937289311181E+00  8.032536782915E+00  8.128927224310E+00  8.226474351002E+00
  8.325192043214E+00  8.425094347732E+00  8.526195479905E+00  8.628509825664E+00
  8.732051943572E+00  8.836836566895E+00  8.942878605698E+00  9.050193148966E+00
  9.158795466753E+00  9.268701012355E+00  9.379925424503E+00  9.492484529597E+00
  9.606394343952E+00  9.721671076079E+00  9.838331128992E+00  9.956391102540E+00
  1.007586779577E+01  1.019677820932E+01  1.031913954783E+01  1.044296922241E+01
  1.056828485307E+01  1.069510427131E+01  1.082344552257E+01  1.095332686884E+01
  1.108476679126E+01  1.121778399276E+01  1.135239740067E+01  1.148862616948E+01
  1.162648968351E+01  1.176600755972E+01  1.190719965043E+01  1.205008604624E+01
  1.219468707879E+01  1.234102332374E+01  1.248911560362E+01  1.263898499087E+01
  1.279065281076E+01  1.294414064449E+01  1.309947033222E+01  1.325666397621E+01
  1.341574394392E+01  1.357673287125E+01  1.373965366570E+01  1.390452950969E+01
  1.407138386381E+01  1.424024047017E+01  1.441112335582E+01  1.458405683609E+01
  1.475906551812E+01  1.493617430434E+01  1.511540839599E+01  1.529679329674E+01
  1.548035481630E+01  1.566611907410E+01  1.585411250299E+01  1.604436185302E+01
  1.623689419526E+01  1.643173692560E+01  1.662891776871E+01  1.682846478193E+01
  1.703040635932E+01  1.723477123563E+01  1.744158849046E+01  1.765088755234E+01
  1.786269820297E+01  1.807705058140E+01  1.829397518838E+01  1.851350289064E+01
  1.873566492533E+01  1.896049290443E+01  1.918801881929E+01  1.941827504512E+01
  1.965129434566E+01  1.988710987781E+01  2.012575519634E+01  2.036726425870E+01
  2.061167142980E+01  2.085901148696E+01  2.110931962480E+01  2.136263146030E+01
  2.161898303782E+01  2.187841083428E+01  2.214095176429E+01  2.240664318546E+01
  2.267552290369E+01  2.294762917853E+01  2.322300072867E+01  2.350167673742E+01
  2.378369685827E+01  2.406910122057E+01  2.435793043521E+01  2.465022560043E+01
  2.494602830764E+01  2.524538064733E+01  2.554832521510E+01  2.585490511768E+01
  2.616516397909E+01  2.647914594684E+01  2.679689569820E+01  2.711845844658E+01
  2.744387994794E+01  2.777320650732E+01  2.810648498540E+01  2.844376280523E+01
  2.878508795889E+01  2.913050901440E+01  2.948007512257E+01  2.983383602404E+01
  3.019184205633E+01  3.055414416101E+01  3.092079389094E+01  3.129184341763E+01
  3.166734553864E+01  3.204735368511E+01  3.243192192933E+01  3.282110499248E+01
  3.321495825239E+01  3.361353775142E+01  3.401690020443E+01  3.442510300689E+01
  3.483820424297E+01  3.525626269389E+01  3.567933784621E+01  3.610748990037E+01
  3.654077977917E+01  3.697926913652E+01  3.742302036616E+01  3.787209661055E+01
  3.832656176988E+01  3.878648051112E+01  3.925191827725E+01  3.972294129658E+01
  4.019961659214E+01  4.068201199124E+01  4.117019613514E+01  4.166423848876E+01
  4.216420935063E+01  4.267017986283E+01  4.318222202119E+01  4.370040868544E+01
  4.422481358967E+01
</grid-data>
</grid>
<valence-charge total-charge="16" is-unscreening-charge="yes"
 rescaled-to-z-pseudo="no">
<radfunc>
<data npts="457">
  1.002152531819E+01  1.002784228711E+01  1.004672276682E+01  1.007821179504E+01
  1.012197136841E+01  1.017947344589E+01  1.025269796162E+01  1.033646213450E+01
  1.043053843006E+01  1.054010223261E+01  1.066341309333E+01  1.079721906735E+01
  1.095861830303E+01  1.112681636935E+01  1.132474673785E+01  1.152189086842E+01
  1.174824848978E+01  1.196215710512E+01  1.220186740736E+01  1.247030216439E+01
  1.277066287226E+01  1.303627453675E+01  1.332647212492E+01  1.364330208837E+01
  1.398893093541E+01  1.436564026134E+01  1.477581800257E+01  1.510690432219E+01
  1.545928538568E+01  1.583405339686E+01  1.623231037990E+01  1.665515890837E+01
  1.710369084797E+01  1.757897382575E+01  1.808203511063E+01  1.861384256260E+01
  1.917528228195E+01  1.976713256754E+01  2.017891709937E+01  2.060465426827E+01
  2.104445366324E+01  2.149838022300E+01  2.196644820554E+01  2.244861465845E+01
  2.294477237243E+01  2.345474230406E+01  2.397826545825E+01  2.451499422734E+01
  2.506448319054E+01  2.562617938714E+01  2.619941208724E+01  2.678338209721E+01
  2.737715065247E+01  2.797962796787E+01  2.858956153716E+01  2.920552429679E+01
  2.982590279629E+01  3.044888554829E+01  3.107245176473E+01  3.169436072370E+01
  3.231214205144E+01  3.292308724796E+01  3.352424283015E+01  3.411240551432E+01
  3.468411990754E+01  3.523567922447E+01  3.576312959068E+01  3.601651276138E+01
  3.626227853230E+01  3.649986774437E+01  3.672870828336E+01  3.694821580513E+01
  3.715779456167E+01  3.735683833292E+01  3.754473146929E+01  3.772085004952E+01
  3.788456315810E+01  3.803523428652E+01  3.817222286183E+01  3.829488590569E+01
  3.840257982652E+01  3.849466234674E+01  3.857049456621E+01  3.862944316223E+01
  3.867088272568E+01  3.869419823137E+01  3.869878764013E+01  3.868406462842E+01
  3.864946144009E+01  3.859443185347E+01  3.851845425527E+01  3.842103481127E+01
  3.830171072183E+01  3.816005354853E+01  3.799567259644E+01  3.780821833415E+01
  3.759738583228E+01  3.736291819857E+01  3.710460998607E+01  3.682231054875E+01
  3.651592731692E+01  3.618542896311E+01  3.583084842723E+01  3.545228576843E+01
  3.504991080957E+01  3.462396553923E+01  3.417476623544E+01  3.370270527467E+01
  3.320825258973E+01  3.269195674059E+01  3.215444556275E+01  3.159642635946E+01
  3.101868560580E+01  3.042208813510E+01  2.980757578156E+01  2.917616545631E+01
  2.852894663891E+01  2.786707827100E+01  2.719178504482E+01  2.650435308518E+01
  2.580612503069E+01  2.509849452698E+01  2.438290015274E+01  2.366081880718E+01
  2.293375859579E+01  2.220325125993E+01  2.147084420366E+01  2.073809217956E+01
  2.000654870285E+01  1.927775727041E+01  1.855324246738E+01  1.783450104975E+01
  1.712299309548E+01  1.642013331990E+01  1.572728265250E+01  1.504574017252E+01
  1.437673549891E+01  1.372142172696E+01  1.308086899847E+01  1.245605878578E+01
  1.184787896089E+01  1.125711971080E+01  1.068447034848E+01  1.013051705595E+01
  9.595741581728E+00  9.080520900709E+00  8.585127829322E+00  8.109732573953E+00
  7.654405176278E+00  7.219118805610E+00  6.803753836488E+00  6.408102639209E+00
  6.031875001596E+00  5.674704093251E+00  5.336152879505E+00  5.015728410390E+00
  4.712913701244E+00  4.427164880348E+00  4.157896634222E+00  3.904490954223E+00
  3.666296430207E+00  3.442641150815E+00  3.232845941291E+00  3.036227371250E+00
  2.852102435889E+00  2.679792805749E+00  2.518628711064E+00  2.367952443428E+00
  2.227121472725E+00  2.095511181592E+00  1.972517223046E+00  1.857557508927E+00
  1.750073837787E+00  1.649533170734E+00  1.555428563042E+00  1.467279758221E+00
  1.384633450273E+00  1.307078613006E+00  1.234294068736E+00  1.166009154038E+00
  1.101954688515E+00  1.041873932876E+00  9.855224031317E-01  9.326676476312E-01
  8.830889913864E-01  8.365772519609E-01  7.929344310025E-01  7.519733852945E-01
  7.135174809786E-01  6.774002343736E-01  6.434649425777E-01  6.115643067952E-01
  5.815600510816E-01  5.533225389533E-01  5.267303900600E-01  5.016700988774E-01
  4.780356571458E-01  4.557281815589E-01  4.346555480006E-01  4.147320334378E-01
  3.958779664027E-01  3.780193868442E-01  3.610877159897E-01  3.450194367367E-01
  3.297557849869E-01  3.152424522435E-01  3.014292997085E-01  2.882700840427E-01
  2.757221948891E-01  2.637464041950E-01  2.523066273167E-01  2.413696958396E-01
  2.309051419965E-01  2.208849945259E-01  2.112835857700E-01  2.020773697761E-01
  1.932447511318E-01  1.847659242350E-01  1.766227226752E-01  1.687984783804E-01
  1.612778901685E-01  1.540469013257E-01  1.470925858293E-01  1.404030428214E-01
  1.339672989405E-01  1.277752181166E-01  1.218174184380E-01  1.160851957032E-01
  1.105704532791E-01  1.052656378922E-01  1.001636809953E-01  9.525794535725E-02
  9.054217654036E-02  8.601045894190E-02  8.165717608894E-02  7.747697489167E-02
  7.346473357411E-02  6.961553301603E-02  6.592463125461E-02  6.238744090901E-02
  5.899950930525E-02  5.575650109252E-02  5.265418315557E-02  4.968841164012E-02
  4.685512092020E-02  4.415031434730E-02  4.157005663097E-02  3.911046770962E-02
  3.676771797840E-02  3.453802474623E-02  3.241764981150E-02  3.040289801916E-02
  2.849011671514E-02  2.667569597753E-02  2.495606952557E-02  2.332771620796E-02
  2.178716197554E-02  2.033098224702E-02  1.895580458042E-02  1.765831156719E-02
  1.643524387055E-02  1.528340333490E-02  1.419965609851E-02  1.318093564784E-02
  1.222424575811E-02  1.132666327120E-02  1.048534066878E-02  9.697508405409E-03
  8.960476972875E-03  8.271638673804E-03  7.628469088719E-03  7.028528226806E-03
  6.469461356096E-03  5.948999513891E-03  5.464959702798E-03  5.015244781727E-03
  4.597843064675E-03  4.210827642994E-03  3.852355449193E-03  3.520666082109E-03
  3.214080414633E-03  2.930999005976E-03  2.669900340896E-03  2.429338918321E-03
  2.207943211458E-03  2.004413520884E-03  1.817519741156E-03  1.646099060448E-03
  1.489053611374E-03  1.345348089781E-03  1.214007356804E-03  1.094114037894E-03
  9.848061310232E-04  8.852746346891E-04  7.947612048899E-04  7.125558488252E-04
  6.379946617700E-04  5.704576123853E-04  5.093663806559E-04  4.541822517177E-04
  4.044040680294E-04  3.595662416729E-04  3.192368280080E-04  2.830156614681E-04
  2.505325539309E-04  2.214455558387E-04  1.954392800431E-04  1.722232882085E-04
  1.515305395034E-04  1.331159012342E-04  1.167547210146E-04  1.022414600112E-04
  8.938838675090E-05  7.802433091974E-05  6.799349651298E-05  5.915433361977E-05
  5.137846803728E-05  4.454968781120E-05  3.856298569297E-05  3.332365639254E-05
  2.874644739027E-05  2.475476195634E-05  2.127991291389E-05  1.826042557459E-05
  1.564138817661E-05  1.337384806555E-05  1.141425178156E-05  9.723927151432E-06
  8.268605433895E-06  7.017981530500E-06  5.945310252647E-06  5.027036628265E-06
  4.242458238158E-06  3.573417591554E-06  3.004022582117E-06  2.520393108197E-06
  2.110431993507E-06  1.763618405171E-06  1.470822034049E-06  1.224136376080E-06
  1.016729531738E-06  8.427110224631E-07  6.970132070656E-07  5.752859651739E-07
  4.738034038104E-07  3.893814322518E-07  3.193050435913E-07  2.612646245013E-07
  2.132997969607E-07  1.737503618808E-07  1.412136435109E-07  1.145073356893E-07
  9.263722626385E-08  7.476925496186E-08  6.020538760131E-08  4.836283927410E-08
  3.875622817685E-08  3.098228676238E-08  2.470679812903E-08  1.965346320836E-08
  1.559443852732E-08  1.234231529341E-08  9.743338478698E-09  7.671689661643E-09
  6.024679828971E-09  4.718718345786E-09  3.685942069969E-09  2.871404309157E-09
  2.230737183874E-09  1.728213120395E-09  1.332756423504E-09  1.026803461269E-09
  7.888161897577E-10  6.042297582706E-10  4.614789006911E-10  3.514070428268E-10
  2.667860774768E-10  2.019272597794E-10  1.523668948218E-10  1.146132229498E-10
  8.594322101484E-11  6.423998785907E-11  4.786302084412E-11  3.554506213369E-11
  2.631033810112E-11  1.940996692694E-11  1.427109791118E-11  1.045699692639E-11
  7.635827857872E-12  5.556318722241E-12  4.028859541285E-12  2.910870660195E-12
  2.095516607685E-12  1.503031541569E-12  1.074075974766E-12  7.646676529733E-13
  5.423278264338E-13  3.831624193451E-13  2.696596222962E-13  1.890343941548E-13
  1.319888585244E-13  9.178773187738E-14  6.357144077981E-14  4.384785863798E-14
  3.011773077652E-14  2.059975081859E-14  1.402961070650E-14  9.513734046304E-15
  6.423262221764E-15  4.317544332440E-15  2.889158963783E-15  1.924581185695E-15
  1.276167270544E-15  8.422900105647E-16  5.533172385467E-16  3.617601961622E-16
  2.353838249791E-16  1.524111115577E-16  9.820089370969E-17  6.295748178541E-17
  4.015931858287E-17  2.548625838306E-17  1.609088111702E-17  1.010603223176E-17
  6.313665012189E-18  3.923329972500E-18  2.424781611668E-18  1.490412997956E-18
  9.110206182381E-19  5.537431742834E-19  3.346708181298E-19  2.011068697463E-19
  1.201449526813E-19  7.135482017422E-20  4.212592861055E-20  2.472025182023E-20
  1.441789903473E-20  8.357277115012E-21  4.814032012952E-21  2.755507393263E-21
  1.567146865120E-21  0.000000000000E+00  0.000000000000E+00  0.000000000000E+00
  0.000000000000E+00  0.000000000000E+00  0.000000000000E+00  0.000000000000E+00
  0.000000000000E+00  0.000000000000E+00  0.000000000000E+00  0.000000000000E+00
  0.000000000000E+00  0.000000000000E+00  0.000000000000E+00  0.000000000000E+00
  0.000000000000E+00
</data>
</radfunc>
</valence-charge>
<pseudocore-charge matching-radius="0.421954997147"
 number-of-continuous-derivatives="4">
<annotation model-charge-form="Teter function with specified parameters" />
<radfunc>
<data npts="290">
  1.128907516281E+02  1.128730748551E+02  1.128202421925E+02  1.127321296938E+02
  1.126096865201E+02  1.124487988747E+02  1.122439341277E+02  1.120096000318E+02
  1.117464398385E+02  1.114399856433E+02  1.110951169795E+02  1.107209385042E+02
  1.102696536930E+02  1.097994210173E+02  1.092461420349E+02  1.086951375294E+02
  1.080625700066E+02  1.074648691579E+02  1.067951529343E+02  1.060452708463E+02
  1.052062910943E+02  1.044644338363E+02  1.036539519219E+02  1.027691168634E+02
  1.018038518198E+02  1.007517392699E+02  9.960603689153E+01  9.868111634982E+01
  9.769652741714E+01  9.664913058064E+01  9.553573078306E+01  9.435309593773E+01
  9.309797928177E+01  9.176714601789E+01  9.035740471259E+01  8.886564392686E+01
  8.728887455301E+01  8.562427831297E+01  8.446446347961E+01  8.326375662928E+01
  8.202152367242E+01  8.073720580804E+01  7.941032976590E+01  7.804051869185E+01
  7.662750366402E+01  7.517113581718E+01  7.367139904114E+01  7.212842320510E+01
  7.054249784493E+01  6.891408623265E+01  6.724383972822E+01  6.553261229233E+01
  6.378147501533E+01  6.199173049222E+01  6.016492684608E+01  5.830287117370E+01
  5.640764215692E+01  5.448160155216E+01  5.252740423930E+01  5.054800648061E+01
  4.854667201045E+01  4.652697555028E+01  4.449280331978E+01  4.244835009766E+01
  4.039811237477E+01  3.834687714054E+01  3.629970585347E+01  3.527929582502E+01
  3.426191316907E+01  3.324825736688E+01  3.223904003789E+01  3.123498376863E+01
  3.023682084281E+01  2.924529187154E+01  2.826114432325E+01  2.728513095325E+01
  2.631800813361E+01  2.536053408448E+01  2.441346700898E+01  2.347756313416E+01
  2.255357466159E+01  2.164224763195E+01  2.074431970866E+01  1.986051788690E+01
  1.899155613495E+01  1.813813297607E+01  1.730092902000E+01  1.648060445429E+01
  1.567779650672E+01  1.489311689114E+01  1.412714925000E+01  1.338044660821E+01
  1.265352885344E+01  1.194688025948E+01  1.126094706983E+01  1.059613515953E+01
  9.952807794153E+00  9.331283505237E+00  8.731834102114E+00  8.154682840247E+00
  7.600002766433E+00  7.067915261132E+00  6.558488797937E+00  6.071737939686E+00
  5.607622590027E+00  5.166047518174E+00  4.746862173378E+00  4.349860804025E+00
  3.974782894433E+00  3.621313930230E+00  3.289086500770E+00  2.977681744232E+00
  2.686631138042E+00  2.415418633906E+00  2.163483133217E+00  1.930221294761E+00
  1.714990662745E+00  1.517113098999E+00  1.335878499070E+00  1.170548767655E+00
  1.020362024665E+00  8.845370091055E-01  7.622776440714E-01  6.527777225134E-01
  5.552256701426E-01  4.688093389960E-01  3.927207828523E-01  3.261609639752E-01
  2.683443396290E-01  2.185032765556E-01  1.758922421655E-01  1.397917226546E-01
  1.095118206337E-01  8.439548818141E-02  6.382135550126E-02  4.720612055731E-02
  3.400647113872E-02  2.372051768505E-02  1.588872279763E-02  1.009432153843E-02
  5.963235228033E-03  3.163490320108E-03  1.404162854351E-03  4.338777571357E-04
  3.890063969434E-05  4.086750235716E-05  2.942046543267E-04  6.832969744743E-04
  1.119467159172E-03  1.537831643553E-03  1.894100293080E-03  2.161386636784E-03
  2.327093297487E-03  2.389933371670E-03  2.357142889392E-03  2.241932276130E-03
  2.061216142971E-03  1.833651011987E-03  1.578000059807E-03  1.311833002058E-03
  1.050558246941E-03  8.067738394896E-04  5.899139211905E-04  4.061588454944E-04
  2.585700803668E-04  1.474058949583E-04  7.057078828620E-05  2.415079560033E-05
  2.988215163355E-06  1.252830293876E-06  1.297213774826E-05  3.249010334903E-05
  5.483212390726E-05  7.596268308078E-05  9.293110627404E-05  1.039092947009E-04
  1.081328273880E-04  1.057629033794E-04  9.769089632855E-05  8.530958190442E-05
  7.027529848224E-05  5.428349873961E-05  3.887658834570E-05  2.529801446303E-05
  1.440075965556E-05  6.612283927910E-06  1.952125370840E-06  9.336760613063E-08
  4.554677640051E-07  2.313830797703E-06  4.911159011913E-06  7.556952326855E-06
  9.704348826716E-06  1.099737668799E-05  1.128611972581E-05  1.061170545534E-05
  9.166847927502E-06  7.240446301521E-06  5.156133480467E-06  3.214562037422E-06
  1.647696410411E-06  5.907431020417E-07  7.404709326026E-08  0.000000000000E+00
  0.000000000000E+00  0.000000000000E+00  0.000000000000E+00  0.000000000000E+00
  0.000000000000E+00  0.000000000000E+00  0.000000000000E+00  0.000000000000E+00
  0.000000000000E+00  0.000000000000E+00  0.000000000000E+00  0.000000000000E+00
  0.000000000000E+00  0.000000000000E+00  0.000000000000E+00  0.000000000000E+00
  0.000000000000E+00  0.000000000000E+00  0.000000000000E+00  0.000000000000E+00
  0.000000000000E+00  0.000000000000E+00  0.000000000000E+00  0.000000000000E+00
  0.000000000000E+00  0.000000000000E+00  0.000000000000E+00  0.000000000000E+00
  0.000000000000E+00  0.000000000000E+00  0.000000000000E+00  0.000000000000E+00
  0.000000000000E+00  0.000000000000E+00  0.000000000000E+00  0.000000000000E+00
  0.000000000000E+00  0.000000000000E+00  0.000000000000E+00  0.000000000000E+00
  0.000000000000E+00  0.000000000000E+00  0.000000000000E+00  0.000000000000E+00
  0.000000000000E+00  0.000000000000E+00  0.000000000000E+00  0.000000000000E+00
  0.000000000000E+00  0.000000000000E+00  0.000000000000E+00  0.000000000000E+00
  0.000000000000E+00  0.000000000000E+00  0.000000000000E+00  0.000000000000E+00
  0.000000000000E+00  0.000000000000E+00  0.000000000000E+00  0.000000000000E+00
  0.000000000000E+00  0.000000000000E+00  0.000000000000E+00  0.000000000000E+00
  0.000000000000E+00  0.000000000000E+00  0.000000000000E+00  0.000000000000E+00
  0.000000000000E+00  0.000000000000E+00  0.000000000000E+00  0.000000000000E+00
  0.000000000000E+00  0.000000000000E+00  0.000000000000E+00  0.000000000000E+00
  0.000000000000E+00  0.000000000000E+00  0.000000000000E+00  0.000000000000E+00
  0.000000000000E+00  0.000000000000E+00  0.000000000000E+00  0.000000000000E+00
  0.000000000000E+00  0.000000000000E+00
</data>
</radfunc>
</pseudocore-charge>
<semilocal-potentials set="scalar_relativistic">
<slps n="3" l="s" rc="1.26436738621" eref="-3.45509113504">
<radfunc>
<data npts="290">
 -1.930906549903E+01 -1.930966658110E+01 -1.931146295507E+01 -1.931445862656E+01
 -1.931862096203E+01 -1.932408926142E+01 -1.933105075237E+01 -1.933901154395E+01
 -1.934794893091E+01 -1.935835305035E+01 -1.937005665328E+01 -1.938274925111E+01
 -1.939804943901E+01 -1.941398265337E+01 -1.943271734447E+01 -1.945136143786E+01
 -1.947274833318E+01 -1.949293938683E+01 -1.951554318860E+01 -1.954082707126E+01
 -1.956908224964E+01 -1.959403697371E+01 -1.962126762365E+01 -1.965095671327E+01
 -1.968329597327E+01 -1.971848552652E+01 -1.975673266354E+01 -1.978755239017E+01
 -1.982030265052E+01 -1.985507480279E+01 -1.989195968339E+01 -1.993104660167E+01
 -1.997242214656E+01 -2.001616878101E+01 -2.006236319860E+01 -2.011107441511E+01
 -2.016236156594E+01 -2.021627137981E+01 -2.025368454228E+01 -2.029228256888E+01
 -2.033206620900E+01 -2.037303156710E+01 -2.041516955007E+01 -2.045846527366E+01
 -2.050289742649E+01 -2.054843759089E+01 -2.059504951953E+01 -2.064268836786E+01
 -2.069129988202E+01 -2.074081954299E+01 -2.079117166808E+01 -2.084226847125E+01
 -2.089400908517E+01 -2.094627854795E+01 -2.099894675924E+01 -2.105186741070E+01
 -2.110487689769E+01 -2.115779321981E+01 -2.121041487963E+01 -2.126251979033E+01
 -2.131386420447E+01 -2.136418167809E+01 -2.141318208580E+01 -2.146055070444E+01
 -2.150594738489E+01 -2.154900583325E+01 -2.158933302454E+01 -2.160834216008E+01
 -2.162650877418E+01 -2.164377605993E+01 -2.166008549390E+01 -2.167537684057E+01
 -2.168958816095E+01 -2.170265582539E+01 -2.171451453104E+01 -2.172509732412E+01
 -2.173433562730E+01 -2.174215927249E+01 -2.174849653934E+01 -2.175327419970E+01
 -2.175641756840E+01 -2.175785056066E+01 -2.175749575636E+01 -2.175527447164E+01
 -2.175110683808E+01 -2.174491188976E+01 -2.173660765859E+01 -2.172611127830E+01
 -2.171333909728E+01 -2.169820680072E+01 -2.168062954233E+01 -2.166052208592E+01
 -2.163779895717E+01 -2.161237460578E+01 -2.158416357830E+01 -2.155308070168E+01
 -2.151904127781E+01 -2.148196128900E+01 -2.144175761437E+01 -2.139834825716E+01
 -2.135165258259E+01 -2.130159156610E+01 -2.124808805145E+01 -2.119106701819E+01
 -2.113045585784E+01 -2.106618465792E+01 -2.099818649289E+01 -2.092639772103E+01
 -2.085075828590E+01 -2.077121202120E+01 -2.068770695750E+01 -2.060019562931E+01
 -2.050863538086E+01 -2.041298866876E+01 -2.031322335992E+01 -2.020931302258E+01
 -2.010123720870E+01 -1.998898172559E+01 -1.987253889472E+01 -1.975190779568E+01
 -1.962709449294E+01 -1.949811224342E+01 -1.936498168250E+01 -1.922773098641E+01
 -1.908639600865E+01 -1.894102038874E+01 -1.879165563123E+01 -1.863836115387E+01
 -1.848120430377E+01 -1.832026034185E+01 -1.815561239625E+01 -1.798735138732E+01
 -1.781557592823E+01 -1.764039220784E+01 -1.746191386483E+01 -1.728026186578E+01
 -1.709556440351E+01 -1.690795683663E+01 -1.671758169600E+01 -1.652458878938E+01
 -1.632913544106E+01 -1.613138690919E+01 -1.593151702892E+01 -1.572970913455E+01
 -1.552615731796E+01 -1.532106808312E+01 -1.511466245724E+01 -1.490717861723E+01
 -1.469887508568E+01 -1.449003454323E+01 -1.428096828957E+01 -1.407202136409E+01
 -1.386357831946E+01 -1.365606697813E+01 -1.344999810504E+01 -1.324604401169E+01