<?xml version="1.0" encoding="UTF-8" ?>
<psml version="1.1" energy_unit="hartree" length_unit="bohr"
 uuid="dabbffc0-44c5-11e8-50a3-2dd1def786ff"
 xmlns="http://esl.cecam.org/PSML/ns/1.1">
<provenance creator="ONCVPSP-3.3.0+psml-3.3.0-73 (fully-relativistic)"
 date="2018-04-20">
<annotation action="semilocal-pseudopotential-generation"
 action-cont="projectors-generation" />
<input-file name="oncvpsp-input">
<![CDATA[# atsym z nc nv iexc psfile
Co 27 3 4 4 both
# n l f
1 0 2.0
2 0 2.0
2 1 6.0
3 0 2.0
3 1 6.0
3 2 7.0
4 0 2.0
# lmax
2
# l rc ep ncon nbas qcut
0 1.25 0.0 4 7 9.3
1 1.32 0.0 4 7 9.7
2 1.65 0.0 4 7  9.5
# lloc lpopt rc5 dvloc0
4 5 1.2 0.0
# l nproj debl
0 2 0.8
1 2 0.8
2 2 0.8
# icmod fcfact
3 6 1.8
# epsh1 epsh2 depsh
-12.0 12.0 0.02
# rlmax drl
6.0 0.01
 0
]]>
</input-file>
</provenance>
<pseudo-atom-spec atomic-label="Co" atomic-number="27" z-pseudo="17"
 flavor="Hamann&apos;s oncvpsp" relativity="dirac" spin-dft="no"
 core-corrections="yes">
<annotation pseudo-energy="-142.166940051" />
<exchange-correlation>
<annotation oncvpsp-xc-code="4" oncvpsp-xc-type="GGA -- Perdew-Burke-Ernzerhof" />
<libxc-info number-of-functionals="2">
<functional name="Perdew, Burke &amp; Ernzerhof (GGA)" type="exchange" id="101" />
<functional name="Perdew, Burke &amp; Ernzerhof (GGA)" type="correlation"
 id="130" />
</libxc-info>
</exchange-correlation>
<valence-configuration total-valence-charge="17">
<shell n="3" l="s" occupation="2" />
<shell n="3" l="p" occupation="6" />
<shell n="3" l="d" occupation="7" />
<shell n="4" l="s" occupation="2" />
</valence-configuration>
</pseudo-atom-spec>
<grid npts="457">
<annotation type="sampled from oncvpsp log grid"
 recipe="r(i:1..N) = r1*exp(a*(i-1)) + r=0; resampled"
 recipe-cont="r1: scale; a: step" scale="0.185185185185E-04"
 step="0.119285708653E-01" delta="0.500000000000E-02" rmax="44.1384555144" />
<grid-data>
  0.000000000000E+00  5.040192420950E-03  1.006738882075E-02  1.510268858140E-02
  2.010881910914E-02  2.522413632811E-02  3.052843244760E-02  3.564931321503E-02
  4.113555087463E-02  4.634708694971E-02  5.159968556889E-02  5.676637413542E-02
  6.245040443473E-02  6.788891108236E-02  7.292592018673E-02  7.833664953955E-02
  8.414882726703E-02  8.932039405154E-02  9.480979180144E-02  1.006365535764E-01
  1.068214128868E-01  1.120418749708E-01  1.175174659061E-01  1.232606540777E-01
  1.292845172121E-01  1.356027721566E-01  1.422298061135E-01  1.474117681829E-01
  1.527825284489E-01  1.583489655335E-01  1.641182086729E-01  1.700976468475E-01
  1.762949382462E-01  1.827180200740E-01  1.893751187181E-01  1.962747602834E-01
  2.034257815129E-01  2.108373411047E-01  2.159277978683E-01  2.211411586201E-01
  2.264803907538E-01  2.319485333081E-01  2.375486986963E-01  2.432840744777E-01
  2.491579251718E-01  2.551735941172E-01  2.613345053736E-01  2.676441656713E-01
  2.741061664073E-01  2.807241856890E-01  2.875019904283E-01  2.944434384852E-01
  3.015524808640E-01  3.088331639619E-01  3.162896318726E-01  3.239261287446E-01
  3.317470011970E-01  3.397567007939E-01  3.479597865779E-01  3.563609276650E-01
  3.649649059025E-01  3.737766185906E-01  3.828010812699E-01  3.920434305761E-01
  4.015089271639E-01  4.112029587013E-01  4.211310429362E-01  4.261846154515E-01
  4.312988308369E-01  4.364744168069E-01  4.417121098086E-01  4.470126551263E-01
  4.523768069878E-01  4.578053286717E-01  4.632989926157E-01  4.688585805271E-01
  4.744848834935E-01  4.801787020954E-01  4.859408465205E-01  4.917721366788E-01
  4.976734023189E-01  5.036454831467E-01  5.096892289445E-01  5.158054996918E-01
  5.219951656881E-01  5.282591076764E-01  5.345982169685E-01  5.410133955721E-01
  5.475055563190E-01  5.540756229948E-01  5.607245304708E-01  5.674532248364E-01
  5.742626635345E-01  5.811538154969E-01  5.881276612828E-01  5.951851932182E-01
  6.023274155368E-01  6.095553445233E-01  6.168700086576E-01  6.242724487615E-01
  6.317637181466E-01  6.393448827644E-01  6.470170213575E-01  6.547812256138E-01
  6.626386003212E-01  6.705902635250E-01  6.786373466873E-01  6.867809948476E-01
  6.950223667858E-01  7.033626351872E-01  7.118029868094E-01  7.203446226511E-01
  7.289887581230E-01  7.377366232204E-01  7.465894626991E-01  7.555485362515E-01
  7.646151186865E-01  7.737905001107E-01  7.830759861121E-01  7.924728979454E-01
  8.019825727207E-01  8.116063635934E-01  8.213456399565E-01  8.312017876360E-01
  8.411762090876E-01  8.512703235967E-01  8.614855674798E-01  8.718233942896E-01
  8.822852750211E-01  8.928726983213E-01  9.035871707012E-01  9.144302167496E-01
  9.254033793506E-01  9.365082199028E-01  9.477463185416E-01  9.591192743641E-01
  9.706287056565E-01  9.822762501244E-01  9.940635651259E-01  1.005992327907E+00
  1.018064235842E+00  1.030281006672E+00  1.042644378752E+00  1.055156111297E+00
  1.067817984633E+00  1.080631800449E+00  1.093599382054E+00  1.106722574639E+00
  1.120003245534E+00  1.133443284481E+00  1.147044603895E+00  1.160809139141E+00
  1.174738848811E+00  1.188835714997E+00  1.203101743577E+00  1.217538964500E+00
  1.232149432074E+00  1.246935225258E+00  1.261898447962E+00  1.277041229337E+00
  1.292365724089E+00  1.307874112778E+00  1.323568602132E+00  1.339451425357E+00
  1.355524842461E+00  1.371791140571E+00  1.388252634258E+00  1.404911665869E+00
  1.421770605859E+00  1.438831853130E+00  1.456097835367E+00  1.473571009392E+00
  1.491253861504E+00  1.509148907842E+00  1.527258694736E+00  1.545585799073E+00
  1.564132828662E+00  1.582902422606E+00  1.601897251677E+00  1.621120018697E+00
  1.640573458922E+00  1.660260340429E+00  1.680183464514E+00  1.700345666088E+00
  1.720749814081E+00  1.741398811850E+00  1.762295597592E+00  1.783443144764E+00
  1.804844462501E+00  1.826502596051E+00  1.848420627203E+00  1.870601674730E+00
  1.893048894827E+00  1.915765481564E+00  1.938754667343E+00  1.962019723351E+00
  1.985563960032E+00  2.009390727552E+00  2.033503416283E+00  2.057905457278E+00
  2.082600322765E+00  2.107591526639E+00  2.132882624958E+00  2.158477216458E+00
  2.184378943055E+00  2.210591490372E+00  2.237118588256E+00  2.263964011315E+00
  2.291131579451E+00  2.318625158405E+00  2.346448660305E+00  2.374606044229E+00
  2.403101316760E+00  2.431938532561E+00  2.461121794952E+00  2.490655256491E+00
  2.520543119569E+00  2.550789637004E+00  2.581399112648E+00  2.612375902000E+00
  2.643724412824E+00  2.675449105778E+00  2.707554495047E+00  2.740045148987E+00
  2.772925690775E+00  2.806200799065E+00  2.839875208653E+00  2.873953711157E+00
  2.908441155691E+00  2.943342449559E+00  2.978662558954E+00  3.014406509662E+00
  3.050579387777E+00  3.087186340431E+00  3.124232576516E+00  3.161723367434E+00
  3.199664047843E+00  3.238060016417E+00  3.276916736614E+00  3.316239737454E+00
  3.356034614303E+00  3.396307029675E+00  3.437062714031E+00  3.478307466599E+00
  3.520047156199E+00  3.562287722073E+00  3.605035174738E+00  3.648295596835E+00
  3.692075143997E+00  3.736380045725E+00  3.781216606273E+00  3.826591205549E+00
  3.872510300015E+00  3.918980423615E+00  3.966008188699E+00  4.013600286963E+00
  4.061763490407E+00  4.110504652292E+00  4.159830708119E+00  4.209748676617E+00
  4.260265660736E+00  4.311388848665E+00  4.363125514849E+00  4.415483021027E+00
  4.468468817279E+00  4.522090443087E+00  4.576355528404E+00  4.631271794745E+00
  4.686847056281E+00  4.743089220957E+00  4.800006291608E+00  4.857606367108E+00
  4.915897643513E+00  4.974888415235E+00  5.034587076218E+00  5.095002121133E+00
  5.156142146586E+00  5.218015852345E+00  5.280632042573E+00  5.343999627084E+00
  5.408127622609E+00  5.473025154080E+00  5.538701455929E+00  5.605165873401E+00
  5.672427863881E+00  5.740496998248E+00  5.809382962227E+00  5.879095557774E+00
  5.949644704467E+00  6.021040440921E+00  6.093292926212E+00  6.166412441326E+00
  6.240409390622E+00  6.315294303310E+00  6.391077834949E+00  6.467770768969E+00
  6.545384018196E+00  6.623928626415E+00  6.703415769932E+00  6.783856759171E+00
  6.865263040281E+00  6.947646196764E+00  7.031017951125E+00  7.115390166539E+00
  7.200774848537E+00  7.287184146720E+00  7.374630356480E+00  7.463125920758E+00
  7.552683431807E+00  7.643315632989E+00  7.735035420585E+00  7.827855845632E+00
  7.921790115779E+00  8.016851597169E+00  8.113053816335E+00  8.210410462131E+00
  8.308935387676E+00  8.408642612329E+00  8.509546323676E+00  8.611660879561E+00
  8.715000810115E+00  8.819580819837E+00  8.925415789675E+00  9.032520779151E+00
  9.140911028501E+00  9.250601960843E+00  9.361609184373E+00  9.473948494585E+00
  9.587635876520E+00  9.702687507039E+00  9.819119757123E+00  9.936949194208E+00
  1.005619258454E+01  1.017686689555E+01  1.029898929830E+01  1.042257716988E+01
  1.054764809592E+01  1.067421987307E+01  1.080231051155E+01  1.093193823768E+01
  1.106312149654E+01  1.119587895450E+01  1.133022950195E+01  1.146619225597E+01
  1.160378656304E+01  1.174303200180E+01  1.188394838582E+01  1.202655576645E+01
  1.217087443565E+01  1.231692492888E+01  1.246472802802E+01  1.261430476436E+01
  1.276567642153E+01  1.291886453859E+01  1.307389091305E+01  1.323077760401E+01
  1.338954693526E+01  1.355022149848E+01  1.371282415646E+01  1.387737804634E+01
  1.404390658290E+01  1.421243346189E+01  1.438298266343E+01  1.455557845540E+01
  1.473024539686E+01  1.490700834162E+01  1.508589244172E+01  1.526692315102E+01
  1.545012622884E+01  1.563552774358E+01  1.582315407650E+01  1.601303192542E+01
  1.620518830853E+01  1.639965056823E+01  1.659644637505E+01  1.679560373155E+01
  1.699715097633E+01  1.720111678804E+01  1.740753018950E+01  1.761642055177E+01
  1.782781759840E+01  1.804175140958E+01  1.825825242649E+01  1.847735145561E+01
  1.869907967308E+01  1.892346862915E+01  1.915055025270E+01  1.938035685574E+01
  1.961292113800E+01  1.984827619166E+01  2.008645550596E+01  2.032749297203E+01
  2.057142288770E+01  2.081827996235E+01  2.106809932190E+01  2.132091651376E+01
  2.157676751193E+01  2.183568872207E+01  2.209771698673E+01  2.236288959057E+01
  2.263124426566E+01  2.290281919685E+01  2.317765302721E+01  2.345578486354E+01
  2.373725428190E+01  2.402210133328E+01  2.431036654928E+01  2.460209094787E+01
  2.489731603925E+01  2.519608383172E+01  2.549843683770E+01  2.580441807975E+01
  2.611407109671E+01  2.642743994987E+01  2.674456922927E+01  2.706550406002E+01
  2.739029010874E+01  2.771897359004E+01  2.805160127312E+01  2.838822048840E+01
  2.872887913426E+01  2.907362568387E+01  2.942250919208E+01  2.977557930239E+01
  3.013288625401E+01  3.049448088906E+01  3.086041465973E+01  3.123073963565E+01
  3.160550851128E+01  3.198477461341E+01  3.236859190877E+01  3.275701501168E+01
  3.315009919182E+01  3.354790038212E+01  3.395047518670E+01  3.435788088895E+01
  3.477017545961E+01  3.518741756513E+01  3.560966657591E+01  3.603698257482E+01
  3.646942636572E+01  3.690705948211E+01  3.734994419589E+01  3.779814352624E+01
  3.825172124856E+01  3.871074190354E+01  3.917527080638E+01  3.964537405606E+01
  4.012111854473E+01  4.060257196727E+01  4.108980283088E+01  4.158288046485E+01
  4.208187503042E+01  4.258685753079E+01  4.309789982116E+01  4.361507461901E+01
  4.413845551444E+01
</grid-data>
</grid>
<valence-charge total-charge="17" is-unscreening-charge="yes"
 rescaled-to-z-pseudo="no">
<radfunc>
<data npts="457">
  1.241549329110E+01  1.242322327245E+01  1.244632626014E+01  1.248485503701E+01
  1.253839221338E+01  1.260873300162E+01  1.269829099807E+01  1.280071812545E+01
  1.292774202016E+01  1.306484304885E+01  1.321908695445E+01  1.338638750905E+01
  1.358808964987E+01  1.379817296607E+01  1.400745430313E+01  1.424778889905E+01
  1.452357745199E+01  1.478404109260E+01  1.507573956747E+01  1.540216262732E+01
  1.576711954048E+01  1.608959882595E+01  1.644165251390E+01  1.682568522470E+01
  1.724423004441E+01  1.769993933937E+01  1.819557053052E+01  1.859519987500E+01
  1.902010415493E+01  1.947151432556E+01  1.995066043420E+01  2.045875899835E+01
  2.099699790150E+01  2.156651847421E+01  2.216839440129E+01  2.280360707042E+01
  2.347301695692E+01  2.417733062357E+01  2.466652744983E+01  2.517156721300E+01
  2.569249387563E+01  2.622929205615E+01  2.678187969827E+01  2.735010018847E+01
  2.793371390992E+01  2.853238922610E+01  2.914569289463E+01  2.977307991941E+01
  3.041388285930E+01  3.106730062343E+01  3.173238679671E+01  3.240803755606E+01
  3.309297925618E+01  3.378575578598E+01  3.448471582132E+01  3.518800012806E+01
  3.589352910081E+01  3.659899075780E+01  3.730182945081E+01  3.799923559071E+01
  3.868813673402E+01  3.936519042331E+01  4.002677922308E+01  4.066900844300E+01
  4.128770708944E+01  4.187843263342E+01  4.243648022538E+01  4.270171120553E+01
  4.295689702254E+01  4.320138312269E+01  4.343450231918E+01  4.365557578782E+01
  4.386391418047E+01  4.405881886149E+01  4.423958327191E+01  4.440549442599E+01
  4.455583454437E+01  4.468988282754E+01  4.480691737284E+01  4.490621723764E+01
  4.498706465056E+01  4.504874737178E+01  4.509056120261E+01  4.511181264348E+01
  4.511182169827E+01  4.508992482168E+01  4.504547800510E+01  4.497785999474E+01
  4.488647563426E+01  4.477075932247E+01  4.463017857479E+01  4.446423767515E+01
  4.427248140313E+01  4.405449881892E+01  4.380992708656E+01  4.353845531361E+01
  4.323982838326E+01  4.291385075258E+01  4.256039018826E+01  4.217938140930E+01
  4.177082960361E+01  4.133481378397E+01  4.087148994659E+01  4.038109399424E+01
  3.986394438447E+01  3.932044446245E+01  3.875108443738E+01  3.815644296120E+01
  3.753718826855E+01  3.689407883774E+01  3.622796353399E+01  3.553978119795E+01
  3.483055964540E+01  3.410141404723E+01  3.335354466306E+01  3.258823390650E+01
  3.180684272584E+01  3.101080629013E+01  3.020162897783E+01  2.938087867283E+01
  2.855018038105E+01  2.771120918978E+01  2.686568260118E+01  2.601535228115E+01
  2.516199527458E+01  2.430740474786E+01  2.345338032937E+01  2.260171812791E+01
  2.175420051797E+01  2.091258578864E+01  2.007859776022E+01  1.925391547813E+01
  1.844016309820E+01  1.763890008013E+01  1.685161180660E+01  1.607970074465E+01
  1.532447826214E+01  1.458715720723E+01  1.386884535046E+01  1.317053977943E+01
  1.249312232377E+01  1.183735607401E+01  1.120388304205E+01  1.059322299345E+01
  1.000577346324E+01  9.441810947655E+00  8.901493244096E+00  8.384862892658E+00
  7.891851653122E+00  7.422285933892E+00  6.975893073176E+00  6.552308358897E+00
  6.151082662531E+00  5.771690553821E+00  5.413538758378E+00  5.075974818681E+00
  4.758295820847E+00  4.459757054326E+00  4.179580480325E+00  3.916963154293E+00
  3.671086194872E+00  3.441123622866E+00  3.226248317040E+00  3.025637376009E+00
  2.838476405161E+00  2.663963433594E+00  2.501313492546E+00  2.349762646212E+00
  2.208571593014E+00  2.077028799924E+00  1.954453185180E+00  1.840196366960E+00
  1.733644496061E+00  1.634219689403E+00  1.541381078822E+00  1.454625486368E+00
  1.373487733823E+00  1.297540590795E+00  1.226394363094E+00  1.159696121560E+00
  1.097128571428E+00  1.038408564067E+00  9.832840571064E-01  9.315261048987E-01
  8.829183299356E-01  8.372565554442E-01  7.943482911331E-01  7.540122949706E-01
  7.160781287064E-01  6.803857100277E-01  6.467848639682E-01  6.151348759267E-01
  5.853040483942E-01  5.571692632415E-01  5.306155511819E-01  5.055356698065E-01
  4.818296913774E-01  4.594046013797E-01  4.381739086558E-01  4.180572677923E-01
  3.989801142874E-01  3.808733129030E-01  3.636728194947E-01  3.473193565154E-01
  3.317581022996E-01  3.169383941601E-01  3.028134452600E-01  2.893400751599E-01
  2.764784538873E-01  2.641918593241E-01  2.524464476662E-01  2.412110366680E-01
  2.304569013510E-01  2.201575818250E-01  2.102887028460E-01  2.008278047109E-01
  1.917541850738E-01  1.830487512532E-01  1.746938825915E-01  1.666733024198E-01
  1.589719591796E-01  1.515759162526E-01  1.444722500520E-01  1.376489559347E-01
  1.310948615016E-01  1.247995468613E-01  1.187532714452E-01  1.129469069730E-01
  1.073718761820E-01  1.020200969480E-01  9.688393144119E-02  9.195613997473E-02
  8.722983922143E-02  8.269846448992E-02  7.835573576722E-02  7.419562725176E-02
  7.021234011651E-02  6.640027825770E-02  6.275402679975E-02  5.926833314171E-02
  5.593809034435E-02  5.275832267029E-02  4.972417310175E-02  4.683089267188E-02
  4.407383145591E-02  4.144843107798E-02  3.895021859755E-02  3.657480164573E-02
  3.431786469788E-02  3.217516634681E-02  3.014253748865E-02  2.821588030210E-02
  2.639116792220E-02  2.466444471074E-02  2.303182702968E-02  2.148950442765E-02
  2.003374115449E-02  1.866087792251E-02  1.736733383870E-02  1.614960843690E-02
  1.500428374456E-02  1.392802632462E-02  1.291758923918E-02  1.196981388770E-02
  1.108163167929E-02  1.025006550473E-02  9.472230980422E-03  8.745337442496E-03
  8.066688675587E-03  7.433683365972E-03  6.843815274327E-03  6.294673128003E-03
  5.783940237051E-03  5.309393842039E-03  4.868904204967E-03  4.460433457355E-03
  4.082034221825E-03  3.731848025241E-03  3.408103522769E-03  3.109114553033E-03
  2.833278045003E-03  2.579071797283E-03  2.345052150214E-03  2.129851570640E-03
  1.932176168374E-03  1.750803162375E-03  1.584578313474E-03  1.432413339158E-03
  1.293283324539E-03  1.166224142182E-03  1.050329891986E-03  9.447503709030E-04
  8.486885808599E-04  7.613982819164E-04  6.821815964893E-04  6.103866693211E-04
  5.454053868792E-04  4.866711589841E-04  4.336567647119E-04  3.858722639752E-04
  3.428629756732E-04  3.042075228795E-04  2.695159452179E-04  2.384278783326E-04
  2.106108001800E-04  1.857583437450E-04  1.635886756965E-04  1.438429404323E-04
  1.262837689208E-04  1.106938517027E-04  9.687457537750E-05  8.464472185232E-05
  7.383922957569E-05  6.430801591203E-05  5.591485973602E-05  4.853634323782E-05
  4.206085183368E-05  3.638763097314E-05  3.142589852687E-05  2.709401133071E-05
  2.331868435508E-05  2.003426086643E-05  1.718203185239E-05  1.470960289596E-05
  1.257030660891E-05  1.072265867162E-05  9.129855476925E-06  7.759311339798E-06
  6.582233213139E-06  5.573230842172E-06  4.709960296050E-06  3.972798834049E-06
  3.344549094675E-06  2.810170637884E-06  2.356536922409E-06  1.972215860673E-06
  1.647272160947E-06  1.373089739991E-06  1.142212577034E-06  9.482024310451E-07
  7.855119663807E-07  6.493719765958E-07  5.356913342506E-07  4.409681718749E-07
  3.622116248516E-07  2.968730779509E-07  2.427857229487E-07  1.981115597235E-07
  1.612950772291E-07  1.310228802503E-07  1.061885879077E-07  8.586239340093E-08
  6.926473357452E-08  5.574357193107E-08  4.475484974344E-08  3.584570701117E-08
  2.864011827372E-08  2.282662787875E-08  1.814790536955E-08  1.439187438204E-08
  1.138419802074E-08  8.981930313189E-09  7.068167227653E-09  5.547552081174E-09
  4.342509165631E-09  3.390096273640E-09  2.639381702725E-09  2.049264435829E-09
  1.586667710299E-09  1.225046257082E-09  9.431562676408E-10  7.240447679966E-10
  5.542216761016E-10  4.229835091162E-10  3.218625966994E-10  2.439978873813E-10
  1.845534657596E-10  1.391615213428E-10  1.046071700720E-10  7.838506870410E-11
  5.854892163910E-11  4.359151543100E-11  3.234939504101E-11  2.392736561716E-11
  1.763889219409E-11  1.295920526227E-11  9.488526854920E-12  6.923330431353E-12
  5.033956172236E-12  3.647236487294E-12  2.633057408875E-12  1.894000950768E-12
  1.357390572090E-12  9.692042405456E-13  6.894336103209E-13  4.885588100929E-13
  3.448806543410E-13  2.425093524533E-13  1.698539530719E-13  1.184922417326E-13
  8.232857317121E-14  5.696875712065E-14  3.925791133614E-14  2.694017840465E-14
  1.840919738977E-14  1.252588324545E-14  8.485915819578E-15  5.723786121825E-15
  3.843612344946E-15  2.569473673562E-15  1.709912152501E-15  1.132673648075E-15
  7.468153122125E-16  4.900888321835E-16  3.200847870181E-16  2.080458493788E-16
  1.345648803661E-16  8.660791892775E-17  5.546396485438E-17  3.533992049273E-17
  2.240243280574E-17  1.412774781440E-17  8.862818473228E-18  5.530504562323E-18
  3.432606335239E-18  2.118954172599E-18  1.300855586072E-18  7.941780171984E-19
  4.821240984466E-19  2.910198541654E-19  1.746543636275E-19  1.042075501363E-19
  6.180895015303E-20  3.644224470199E-20  2.135645645956E-20  1.243918531989E-20
  7.200477044872E-21  4.141947561286E-21  2.367496196205E-21  0.000000000000E+00
  0.000000000000E+00  0.000000000000E+00  0.000000000000E+00  0.000000000000E+00
  0.000000000000E+00  0.000000000000E+00  0.000000000000E+00  0.000000000000E+00
  0.000000000000E+00  0.000000000000E+00  0.000000000000E+00  0.000000000000E+00
  0.000000000000E+00  0.000000000000E+00  0.000000000000E+00  0.000000000000E+00
  0.000000000000E+00
</data>
</radfunc>
</valence-charge>
<pseudocore-charge matching-radius="0.401508927164"
 number-of-continuous-derivatives="4">
<annotation model-charge-form="Teter function with specified parameters" />
<radfunc>
<data npts="290">
  2.659184795816E+02  2.658776203056E+02  2.657554986850E+02  2.655518262148E+02
  2.652687935895E+02  2.648968867263E+02  2.644233091738E+02  2.638815899417E+02
  2.632096469012E+02  2.624842256805E+02  2.616678830165E+02  2.607821741364E+02
  2.597139672986E+02  2.586009319291E+02  2.574916860046E+02  2.562172693867E+02
  2.547540660358E+02  2.533713752252E+02  2.518219271775E+02  2.500868055984E+02
  2.481452688507E+02  2.464282627354E+02  2.445521816949E+02  2.425036952114E+02
  2.402686505746E+02  2.378320876087E+02  2.351782719124E+02  2.330354656594E+02
  2.307540334239E+02  2.283266207322E+02  2.257457321438E+02  2.230037726485E+02
  2.200930978327E+02  2.170060738640E+02  2.137351483856E+02  2.102729334388E+02
  2.066123015358E+02  2.027464959685E+02  2.000521907578E+02  1.972621980662E+02
  1.943749603968E+02  1.913890884681E+02  1.883033847371E+02  1.851168684426E+02
  1.818288021488E+02  1.784387197451E+02  1.749464558350E+02  1.713521764106E+02
  1.676564106834E+02  1.638600838936E+02  1.599645508849E+02  1.559716301772E+02
  1.518836382195E+02  1.477034234465E+02  1.434343996985E+02  1.390805785006E+02
  1.346465996239E+02  1.301377592811E+02  1.255600352351E+02  1.209201080250E+02
  1.162253774446E+02  1.114839733408E+02  1.067047597424E+02  1.018973312820E+02
  9.707200084097E+01  9.223977733616E+01  8.741233257603E+01  8.500422008613E+01
  8.260195615739E+01  8.020716400268E+01  7.782149744795E+01  7.544663835562E+01
  7.308429381776E+01  7.073619311593E+01  6.840408444549E+01  6.608973140347E+01
  6.379490924030E+01  6.152140087706E+01  5.927099269164E+01  5.704547007867E+01
  5.484661278985E+01  5.267619006343E+01  5.053595555331E+01  4.842764207052E+01
  4.635295615196E+01  4.431357247374E+01  4.231112812858E+01  4.034721678942E+01
  3.842338278371E+01  3.654111510542E+01  3.470184139427E+01  3.290692191431E+01
  3.115764356615E+01  2.945521396970E+01  2.780075565643E+01  2.619530041222E+01
  2.463978381370E+01  2.313504000280E+01  2.168179674527E+01  2.028067082030E+01
  1.893216378879E+01  1.763665818824E+01  1.639441420177E+01  1.520556684839E+01
  1.407012374003E+01  1.298796344927E+01  1.195883452892E+01  1.098235522164E+01
  1.005801389405E+01  9.185170224810E+00  8.363057171475E+00  7.590783734493E+00
  6.867338530364E+00  6.191594178511E+00  5.562312498549E+00  4.978150506080E+00
  4.437667186168E+00  3.939331014195E+00  3.481528184114E+00  3.062571494164E+00
  2.680709830214E+00  2.334138177035E+00  2.021008078280E+00  1.739438456861E+00
  1.487526699002E+00  1.263359897720E+00  1.065026144982E+00  8.906257566046E-01
  7.382823102477E-01  6.061533747698E-01  4.924408090238E-01  3.954005099133E-01
  3.133514934155E-01  2.446841983344E-01  1.878679108414E-01  1.414572183791E-01
  1.040974141813E-01  7.452878838402E-02  5.158975828558E-02  3.421880850920E-02
  2.145523132829E-02  1.243867785544E-02  6.407551749867E-03  2.696298085784E-03
  7.316605313711E-04  2.799946974193E-05  1.817815938579E-04  8.653672735991E-04
  1.820235096675E-03  2.849792940604E-03  3.811931321075E-03  4.611477249580E-03
  5.192705194245E-03  5.532055871298E-03  5.631203539951E-03  5.510598420712E-03
  5.203593152955E-03  4.751241353338E-03  4.197832981011E-03  3.587206137507E-03
  2.959849014690E-03  2.350779914046E-03  1.788168592071E-03  1.292639628885E-03
  8.771790032061E-04  5.475494133432E-04  3.031087825636E-04  1.379203004558E-04
  4.204151540744E-05  2.884379733025E-06  6.547455031683E-06  3.903513485608E-05
  8.729590622242E-05  1.400313086289E-04  1.882481588425E-04  2.255475043309E-04
  2.481633553066E-04  2.547813155061E-04  2.461807470361E-04  2.247532793526E-04
  1.939548403761E-04  1.577478470102E-04  1.200850235039E-04  8.447716880020E-05
  5.367504054138E-05  2.948158086919E-05  1.269633477964E-05  3.180479512889E-06
  1.965264968949E-08  1.753755944328E-06  6.638792302134E-06  1.290581275599E-05
  1.898600216181E-05  2.367817339178E-05  2.624445992109E-05  2.643053529881E-05
  2.441688602862E-05  2.071623479489E-05  1.603810620963E-05  1.114408098285E-05
  6.716305721291E-06  3.257629051443E-06  1.035097888837E-06  7.059701462469E-08
  0.000000000000E+00  0.000000000000E+00  0.000000000000E+00  0.000000000000E+00
  0.000000000000E+00  0.000000000000E+00  0.000000000000E+00  0.000000000000E+00
  0.000000000000E+00  0.000000000000E+00  0.000000000000E+00  0.000000000000E+00
  0.000000000000E+00  0.000000000000E+00  0.000000000000E+00  0.000000000000E+00
  0.000000000000E+00  0.000000000000E+00  0.000000000000E+00  0.000000000000E+00
  0.000000000000E+00  0.000000000000E+00  0.000000000000E+00  0.000000000000E+00
  0.000000000000E+00  0.000000000000E+00  0.000000000000E+00  0.000000000000E+00
  0.000000000000E+00  0.000000000000E+00  0.000000000000E+00  0.000000000000E+00
  0.000000000000E+00  0.000000000000E+00  0.000000000000E+00  0.000000000000E+00
  0.000000000000E+00  0.000000000000E+00  0.000000000000E+00  0.000000000000E+00
  0.000000000000E+00  0.000000000000E+00  0.000000000000E+00  0.000000000000E+00
  0.000000000000E+00  0.000000000000E+00  0.000000000000E+00  0.000000000000E+00
  0.000000000000E+00  0.000000000000E+00  0.000000000000E+00  0.000000000000E+00
  0.000000000000E+00  0.000000000000E+00  0.000000000000E+00  0.000000000000E+00
  0.000000000000E+00  0.000000000000E+00  0.000000000000E+00  0.000000000000E+00
  0.000000000000E+00  0.000000000000E+00  0.000000000000E+00  0.000000000000E+00
  0.000000000000E+00  0.000000000000E+00  0.000000000000E+00  0.000000000000E+00
  0.000000000000E+00  0.000000000000E+00  0.000000000000E+00  0.000000000000E+00
  0.000000000000E+00  0.000000000000E+00  0.000000000000E+00  0.000000000000E+00
  0.000000000000E+00  0.000000000000E+00  0.000000000000E+00  0.000000000000E+00
  0.000000000000E+00  0.000000000000E+00  0.000000000000E+00  0.000000000000E+00
  0.000000000000E+00  0.000000000000E+00
</data>
</radfunc>
</pseudocore-charge>
<semilocal-potentials set="scalar_relativistic">
<slps n="3" l="s" rc="1.26189844796">
<radfunc>
<data npts="290">
 -2.168785160841E+01 -2.168840732622E+01 -2.169006812484E+01 -2.169283753584E+01
 -2.169668512216E+01 -2.170173925789E+01 -2.170817240650E+01 -2.171552752068E+01
 -2.172464524727E+01 -2.173448178030E+01 -2.174554263148E+01 -2.175753303259E+01
 -2.177197964128E+01 -2.178701565117E+01 -2.180198319124E+01 -2.181915795726E+01
 -2.183884828032E+01 -2.185742669254E+01 -2.187821247325E+01 -2.190144680147E+01
 -2.192739144858E+01 -2.195028772089E+01 -2.197525294773E+01 -2.200244898896E+01
 -2.203204493875E+01 -2.206421613873E+01 -2.209914278702E+01 -2.212725617935E+01
 -2.215710012964E+01 -2.218875167593E+01 -2.222228642271E+01 -2.225777750221E+01
 -2.229529435153E+01 -2.233490128266E+01 -2.237665582117E+01 -2.242060678771E+01
 -2.246679209506E+01 -2.251523623260E+01 -2.254879204855E+01 -2.258335359795E+01
 -2.261891432674E+01 -2.265546286214E+01 -2.269298246991E+01 -2.273145047217E+01
 -2.277083762451E+01 -2.281110745141E+01 -2.285221553910E+01 -2.289410878543E+01
 -2.293672460659E+01 -2.297999010088E+01 -2.302382117032E+01 -2.306812160141E+01
 -2.311278210684E+01 -2.315767933087E+01 -2.320267482177E+01 -2.324761397559E+01
 -2.329232495671E+01 -2.333661760144E+01 -2.338028231247E+01 -2.342308895304E+01
 -2.346478575134E+01 -2.350509822712E+01 -2.354372815424E+01 -2.358035257473E+01
 -2.361462288172E+01 -2.364616399096E+01 -2.367457362239E+01 -2.368747083808E+01
 -2.369942171580E+01 -2.371036808772E+01 -2.372025000682E+01 -2.372900574447E+01
 -2.373657179161E+01 -2.374288286391E+01 -2.374787191120E+01 -2.375147013127E+01
 -2.375360698855E+01 -2.375421023780E+01 -2.375320595319E+01 -2.375051856305E+01
 -2.374607089057E+01 -2.373978420077E+01 -2.373157825412E+01 -2.372137136695E+01
 -2.370908047915E+01 -2.369462122930E+01 -2.367790803761E+01 -2.365885419688E+01
 -2.363737197186E+01 -2.361337270708E+01 -2.358676694357E+01 -2.355746454454E+01
 -2.352537483025E+01 -2.349040672227E+01 -2.345246889711E+01 -2.341146994945E+01
 -2.336731856498E+01 -2.331992370275E+01 -2.326919478713E+01 -2.321504190926E+01
 -2.315737603781E+01 -2.309610923897E+01 -2.303115490542E+01 -2.296242799410E+01
 -2.288984527243E+01 -2.281332557286E+01 -2.273279005530E+01 -2.264816247724E+01
 -2.255936947132E+01 -2.246634082999E+01 -2.236900979731E+01 -2.226731336749E+01
 -2.216119259042E+01 -2.205059288421E+01 -2.193546435489E+01 -2.181576212401E+01
 -2.169144666452E+01 -2.156248414613E+01 -2.142884679127E+01 -2.129051324345E+01
 -2.114746895005E+01 -2.099970656227E+01 -2.084722635542E+01 -2.069003667373E+01
 -2.052815440429E+01 -2.036160548609E+01 -2.019042546108E+01 -2.001466007520E+01
 -1.983436593921E+01 -1.964961126019E+01 -1.946047665667E+01 -1.926705607202E+01
 -1.906945780292E+01 -1.886780566149E+01 -1.866224029239E+01 -1.845292066790E+01
 -1.824002578626E+01 -1.802375660072E+01 -1.780433820769E+01 -1.758202232379E+01
 -1.735709008101E+01 -1.712985516816E+01 -1.690066734289E+01 -1.666991633334E+01
 -1.643803613916E+01 -1.620550972927E+01 -1.597287411659E+01 -1.574072576831E+01
 -1.550972628307E+01 -1.528060823443E+01 -1.505418104342E+01 -1.483133670293E+01
 -1.461305513502E+01 -1.440040892198E+01 -1.419456711548E+01 -1.399679780006E+01